# vtk DataFile Version 3.0
# Solution du M1 TR
ASCII
DATASET UNSTRUCTURED_GRID
POINTS   3280  float
0.0000000E+00  0.0000000E+00  0.1881030E+01
0.2000000E+01  0.0000000E+00  0.1000000E+00
0.2000000E+01  0.1000000E+01  0.1000000E+00
0.0000000E+00  0.1000000E+01  0.1872451E+01
0.1000000E+01  0.0000000E+00  0.6160199E+00
0.1000000E+01  0.1000000E+01  0.5982510E+00
0.1500000E+01  0.5000000E+00  0.1621449E+01
0.1500000E+01  0.0000000E+00  0.1177053E+00
0.1723284E+01  0.3570951E+00  0.1000174E+00
0.1500000E+01  0.2500000E+00  0.1586850E+00
0.1515103E+01  0.2763186E+00  0.1534501E+00
0.1594866E+01  0.2826386E+00  0.1118215E+00
0.1562500E+01  0.1875000E+00  0.1178432E+00
0.1534357E+01  0.1819434E+00  0.1261764E+00
0.1561083E+01  0.3343258E+00  0.4464887E+00
0.1750000E+01  0.0000000E+00  0.1000157E+00
0.1503267E+01  0.1622339E+00  0.1414137E+00
0.1514910E+01  0.2261192E+00  0.1428708E+00
0.1610795E+01  0.1290247E+00  0.1033561E+00
0.1539062E+01  0.1536458E+00  0.1189825E+00
0.1510772E+01  0.1982718E+00  0.1389252E+00
0.1541862E+01  0.2179813E+00  0.1269636E+00
0.1475030E+01  0.2178147E+00  0.1711268E+00
0.1539206E+01  0.2578835E+00  0.1319980E+00
0.1521085E+01  0.2465697E+00  0.1414360E+00
0.1496499E+01  0.2146241E+00  0.1536094E+00
0.1481433E+01  0.1870688E+00  0.1575903E+00
0.1586261E+01  0.1960616E+00  0.1099945E+00
0.1460896E+01  0.2899333E+00  0.1983132E+00
0.1542195E+01  0.2867649E+00  0.1348822E+00
0.1486080E+01  0.2754813E+00  0.1727161E+00
0.1536278E+01  0.3247610E+00  0.4312778E+00
0.1510131E+01  0.3295675E+00  0.5600209E+00
0.1455545E+01  0.2514402E+00  0.1920114E+00
0.1610995E+01  0.1909452E+00  0.1048620E+00
0.1564462E+01  0.2395252E+00  0.1200016E+00
0.1571524E+01  0.3026484E+00  0.1180354E+00
0.1613657E+01  0.2555806E+00  0.1074930E+00
0.1633998E+01  0.2714643E+00  0.1041198E+00
0.1534973E+01  0.3650914E+00  0.8841385E+00
0.1583157E+01  0.2286349E+00  0.1126284E+00
0.1586501E+01  0.1581416E+00  0.1082193E+00
0.1651985E+01  0.2274641E+00  0.1020491E+00
0.1619170E+01  0.2936434E+00  0.1054250E+00
0.1678889E+01  0.2641389E+00  0.1007945E+00
0.1642286E+01  0.2930521E+00  0.1026833E+00
0.1526415E+01  0.3446283E+00  0.6954607E+00
0.1662420E+01  0.3044259E+00  0.1011413E+00
0.1636786E+01  0.2469276E+00  0.1040809E+00
0.1588953E+01  0.3366240E+00  0.3088247E+00
0.1616427E+01  0.3314099E+00  0.1034839E+00
0.1598305E+01  0.3102698E+00  0.1083111E+00
0.1655410E+01  0.2614708E+00  0.1020154E+00
0.1487553E+01  0.3072167E+00  0.2774308E+00
0.1520126E+01  0.3036443E+00  0.1884138E+00
0.1477894E+01  0.2544664E+00  0.1768793E+00
0.1567847E+01  0.2133479E+00  0.1166675E+00
0.1663947E+01  0.3299725E+00  0.1006094E+00
0.1567022E+01  0.2696000E+00  0.1212514E+00
0.1678598E+01  0.3509559E+00  0.1001110E+00
0.1611933E+01  0.3827205E+00  0.6148725E+00
0.1640491E+01  0.3197373E+00  0.1021494E+00
0.1588015E+01  0.2526666E+00  0.1130570E+00
0.1708471E+01  0.3144917E+00  0.1001671E+00
0.1606944E+01  0.3564315E+00  0.3997440E+00
0.1604614E+01  0.2314093E+00  0.1072751E+00
0.1643491E+01  0.3631133E+00  0.1255071E+00
0.2000000E+01  0.5000000E+00  0.1000000E+00
0.1494727E+01  0.3621796E+00  0.9339446E+00
0.1701807E+01  0.3477237E+00  0.1000648E+00
0.1572156E+01  0.3701847E+00  0.7772473E+00
0.1688392E+01  0.3285111E+00  0.1003188E+00
0.1695932E+01  0.3904821E+00  0.1000234E+00
0.1636337E+01  0.3418163E+00  0.1010774E+00
0.1505941E+01  0.9448485E-01  0.1299001E+00
0.1423727E+01  0.1910920E+00  0.2051115E+00
0.1481447E+01  0.3359634E+00  0.6584150E+00
0.1441613E+01  0.3726133E+00  0.9701587E+00
0.1466699E+01  0.3599060E+00  0.9019464E+00
0.1476682E+01  0.4107296E+00  0.1326256E+01
0.1434448E+01  0.3273535E+00  0.4658533E+00
0.1464523E+01  0.3867258E+00  0.1144185E+01
0.1456903E+01  0.3373583E+00  0.6520709E+00
0.1454188E+01  0.3132491E+00  0.3267551E+00
0.1424069E+01  0.2919612E+00  0.2334982E+00
0.1490969E+01  0.3884111E+00  0.1172672E+01
0.1428051E+01  0.4202828E+00  0.1278298E+01
0.1513790E+01  0.3782958E+00  0.1062993E+01
0.1547789E+01  0.4092466E+00  0.1210998E+01
0.1535154E+01  0.3889763E+00  0.1102877E+01
0.1512699E+01  0.4170463E+00  0.1357188E+01
0.1441554E+01  0.3983607E+00  0.1186959E+01
0.1395941E+01  0.3853832E+00  0.8848747E+00
0.1420578E+01  0.3854393E+00  0.1015550E+01
0.1408336E+01  0.3518173E+00  0.6332445E+00
0.1549967E+01  0.3074339E+00  0.1457985E+00
0.1651639E+01  0.4114272E+00  0.4436013E+00
0.1668616E+01  0.3788978E+00  0.1000683E+00
0.1674624E+01  0.4027285E+00  0.1017106E+00
0.1706988E+01  0.4343785E+00  0.1000087E+00
0.1673984E+01  0.4357547E+00  0.3101051E+00
0.1695270E+01  0.4139894E+00  0.1000157E+00
0.1737273E+01  0.4034108E+00  0.1000028E+00
0.1645630E+01  0.3875965E+00  0.3310347E+00
0.1625874E+01  0.4052508E+00  0.6694177E+00
0.1627808E+01  0.4540126E+00  0.9083277E+00
0.1587158E+01  0.4136289E+00  0.1036800E+01
0.1633718E+01  0.4293591E+00  0.7425332E+00
0.1651607E+01  0.4466828E+00  0.6315443E+00
0.1605650E+01  0.4356658E+00  0.1026637E+01
0.1682168E+01  0.4808869E+00  0.3418687E+00
0.1671711E+01  0.4594749E+00  0.4327663E+00
0.1698428E+01  0.4596870E+00  0.1000109E+00
0.1646221E+01  0.4851828E+00  0.7900690E+00
0.1607747E+01  0.4151289E+00  0.8951095E+00
0.1584205E+01  0.4841185E+00  0.1325423E+01
0.1747573E+01  0.4622079E+00  0.1000015E+00
0.1568396E+01  0.4481495E+00  0.1325188E+01
0.1601760E+01  0.4629165E+00  0.1160590E+01
0.1723356E+01  0.4540167E+00  0.1000041E+00
0.1732897E+01  0.4294241E+00  0.1000027E+00
0.1722218E+01  0.4972746E+00  0.1000042E+00
0.1715121E+01  0.4754441E+00  0.1000047E+00
0.1584567E+01  0.4345797E+00  0.1172340E+01
0.1563465E+01  0.4258523E+00  0.1246011E+01
0.1534166E+01  0.4440258E+00  0.1445465E+01
0.1615090E+01  0.4918227E+00  0.1101066E+01
0.1717469E+01  0.4134541E+00  0.1000069E+00
0.1718488E+01  0.3909170E+00  0.1000082E+00
0.1741353E+01  0.3769080E+00  0.1000038E+00
0.1781199E+01  0.4241746E+00  0.1000003E+00
0.2000000E+01  0.2500000E+00  0.1000000E+00
0.1756308E+01  0.4199875E+00  0.1000011E+00
0.1762447E+01  0.3937207E+00  0.1000009E+00
0.1765097E+01  0.4438197E+00  0.1000008E+00
0.1807974E+01  0.4625425E+00  0.1000001E+00
0.1789176E+01  0.4471344E+00  0.1000003E+00
0.1514158E+01  0.1287364E+00  0.1293362E+00
0.1777674E+01  0.4803377E+00  0.1000005E+00
0.1811145E+01  0.4395021E+00  0.1000001E+00
0.1850404E+01  0.4566449E+00  0.1000000E+00
0.1748483E+01  0.3522599E+00  0.1000072E+00
0.1731235E+01  0.3304535E+00  0.1000368E+00
0.1777870E+01  0.3654441E+00  0.1000013E+00
0.1748149E+01  0.2821176E+00  0.1000503E+00
0.1732875E+01  0.3039003E+00  0.1000752E+00
0.1708314E+01  0.2807181E+00  0.1002691E+00
0.1767650E+01  0.3193756E+00  0.1000128E+00
0.1372661E+01  0.1704076E+00  0.2512651E+00
0.1411157E+01  0.2494459E+00  0.2331984E+00
0.1448000E+01  0.2246098E+00  0.1951470E+00
0.1360382E+01  0.2278583E+00  0.2726856E+00
0.1433680E+01  0.2431125E+00  0.2124708E+00
0.1388814E+01  0.2314916E+00  0.2477812E+00
0.1314549E+01  0.2124991E+00  0.3196216E+00
0.1404157E+01  0.2007613E+00  0.2331250E+00
0.1415035E+01  0.1072182E+00  0.1949011E+00
0.1520299E+01  0.1091515E+00  0.1238030E+00
0.1459010E+01  0.1690672E+00  0.1740602E+00
0.1436337E+01  0.2690050E+00  0.2126385E+00
0.1443480E+01  0.1263360E+00  0.1811054E+00
0.1625000E+01  0.0000000E+00  0.1010882E+00
0.1414954E+01  0.2197329E+00  0.2204826E+00
0.1335299E+01  0.2266424E+00  0.2980146E+00
0.1396801E+01  0.1612344E+00  0.2221650E+00
0.1792033E+01  0.3934232E+00  0.1000003E+00
0.1541310E+01  0.1264947E+00  0.1176074E+00
0.1483859E+01  0.1256971E+00  0.1485316E+00
0.1500341E+01  0.1139400E+00  0.1363443E+00
0.1498380E+01  0.1421255E+00  0.1408419E+00
0.1478242E+01  0.1468909E+00  0.1563373E+00
0.1453147E+01  0.1972183E+00  0.1805441E+00
0.1348833E+01  0.2067866E+00  0.2806355E+00
0.1368157E+01  0.2800764E+00  0.2757267E+00
0.1250000E+01  0.0000000E+00  0.3216952E+00
0.1496272E+01  0.2780308E-01  0.1222840E+00
0.1430228E+01  0.1622338E+00  0.1916636E+00
0.1544491E+01  0.1012427E+00  0.1130183E+00
0.1505524E+01  0.5428530E-01  0.1241509E+00
0.1576405E+01  0.1180891E+00  0.1090382E+00
0.1526885E+01  0.8834234E-01  0.1186100E+00
0.1558557E+01  0.6358195E-01  0.1091582E+00
0.1372206E+01  0.9428859E-01  0.2268563E+00
0.1414069E+01  0.8636887E-01  0.1936342E+00
0.1351230E+01  0.1581055E+00  0.2702349E+00
0.1371634E+01  0.2528708E+00  0.2707968E+00
0.1392978E+01  0.2694234E+00  0.2539156E+00
0.1321668E+01  0.2603105E+00  0.3198765E+00
0.1392566E+01  0.3027057E+00  0.2676895E+00
0.1345601E+01  0.2495441E+00  0.2939222E+00
0.1349996E+01  0.1827855E+00  0.2749349E+00
0.1475238E+01  0.9618066E-01  0.1453517E+00
0.1487372E+01  0.4556180E+00  0.1553146E+01
0.1432024E+01  0.3509343E+00  0.7276432E+00
0.1619231E+01  0.5383449E+00  0.1012058E+01
0.1532505E+01  0.4233173E+00  0.1349998E+01
0.1547332E+01  0.4788657E+00  0.1503216E+01
0.1627786E+01  0.4750493E+00  0.9644613E+00
0.1750658E+01  0.4911384E+00  0.1000014E+00
0.1783313E+01  0.5336292E+00  0.1000003E+00
0.1744147E+01  0.5299352E+00  0.1000018E+00
0.1772978E+01  0.5077787E+00  0.1000006E+00
0.1739682E+01  0.5092411E+00  0.1000020E+00
0.1715917E+01  0.5251974E+00  0.1000058E+00
0.1809547E+01  0.4999146E+00  0.1000001E+00
0.1486188E+01  0.5335558E+00  0.1579287E+01
0.1695320E+01  0.5058771E+00  0.1680914E+00
0.1793562E+01  0.5145404E+00  0.1000002E+00
0.1827482E+01  0.5355643E+00  0.1000000E+00
0.1805457E+01  0.5332234E+00  0.1000001E+00
0.1812320E+01  0.5734372E+00  0.1000001E+00
0.1794794E+01  0.5557356E+00  0.1000003E+00
0.1637325E+01  0.5533192E+00  0.7863440E+00
0.1761146E+01  0.5591762E+00  0.1000011E+00
0.1789115E+01  0.5788851E+00  0.1000003E+00
0.1693317E+01  0.6123782E+00  0.1000436E+00
0.1522396E+01  0.5359490E+00  0.1542340E+01
0.1814654E+01  0.6254783E+00  0.1000003E+00
0.1726166E+01  0.5505978E+00  0.1000039E+00
0.1691322E+01  0.5307786E+00  0.1918434E+00
0.1516987E+01  0.5143680E+00  0.1593651E+01
0.1661909E+01  0.5147686E+00  0.6088179E+00
0.1761865E+01  0.6508066E+00  0.1000079E+00
0.1692174E+01  0.5698207E+00  0.1000227E+00
0.1780214E+01  0.6037461E+00  0.1000010E+00
[...]
POINT_DATA    3280
SCALARS hauteur float
LOOKUP_TABLE DEFAULT
       1.7810300E+00
       9.9999999E-09
       9.9999999E-09
       1.7724509E+00
       5.1601989E-01
       4.9825103E-01
       2.1448553E-02
       1.7705294E-02
       1.7391818E-05
       5.8684985E-02
       5.3450121E-02
       1.1821490E-02
       1.7843164E-02
       2.6176391E-02
       1.5704769E-02
       1.5742356E-05
       4.1413697E-02
       4.2870834E-02
       3.3560902E-03
       1.8982471E-02
       3.8925163E-02
       2.6963598E-02
       7.1126824E-02
       3.1997968E-02
       4.1435957E-02
       5.3609425E-02
       5.7590344E-02
       9.9945315E-03
       9.8313180E-02
       3.4882213E-02
       7.2716121E-02
       3.2207283E-02
       5.3140841E-02
       9.2011409E-02
       4.8620281E-03
       2.0001638E-02
       1.8035362E-02
       7.4930213E-03
       4.1198480E-03
       1.2518875E-02
       1.2628414E-02
       8.2192692E-03
       2.0490940E-03
       5.4249958E-03
       7.9451696E-04
       2.6833182E-03
       2.6889625E-02
       1.1412732E-03
       4.0808945E-03
       6.4862416E-03
       3.4838873E-03
       8.3110747E-03
       2.0154245E-03
       7.6942427E-02
       4.9436948E-02
       7.6879326E-02
       1.6667468E-02
       6.0939654E-04
       2.1251423E-02
       1.1101184E-04
       5.0320836E-04
       2.1493696E-03
       1.3056993E-02
       1.6711164E-04
       1.5772067E-03
       7.2751487E-03
       2.9229698E-04
       9.9999999E-09
       4.7279678E-02
       6.4782241E-05
       4.4393836E-03
       3.1877327E-04
       2.3356201E-05
       1.0774003E-03
       2.9900055E-02
       1.0511152E-01
       8.0373365E-02
       1.0652371E-01
       7.9520477E-02
       4.5490486E-02
       1.4475009E-01
       7.2547712E-02
       1.1368294E-01
       1.1330282E-01
       1.3349818E-01
       4.2683359E-02
       1.1073063E-01
       2.5570826E-02
       5.4982684E-03
       1.1455239E-02
       2.1284103E-02
       1.0244949E-01
       1.8357505E-01
       1.4425191E-01
       1.7176255E-01
       2.9986472E-02
       8.2395640E-05
       6.8276755E-05
       4.0143507E-05
       8.6573557E-06
       2.8237011E-05
       1.5661943E-05
       2.7865173E-06
       1.3404287E-04
       2.3248682E-04
       1.8765457E-04
       1.4192901E-03
       1.7785122E-04
       7.4387759E-05
       4.1664895E-04
       1.5121083E-05
       3.1740826E-05
       1.0942408E-05
       7.6046360E-05
       5.8141802E-04
       7.7344148E-04
       1.4544371E-06
       1.4324471E-03
       4.7879212E-04
       4.0747126E-06
       2.6649535E-06
       4.2405131E-06
       4.6551764E-06
       1.0204348E-03
       3.2243751E-03
       6.7305716E-03
       2.8649242E-04
       6.9397866E-06
       8.1779043E-06
       3.8102449E-06
       3.3528595E-07
       9.9999999E-09
       1.0560105E-06
       9.1245991E-07
       7.5057000E-07
       1.0116038E-07
       2.6819211E-07
       2.9336220E-02
       5.2790067E-07
       9.5231479E-08
       1.4586792E-08
       7.2156058E-06
       3.6808084E-05
       1.2527928E-06
       5.0278379E-05
       7.5224612E-05
       2.6906778E-04
       1.2768288E-05
       1.5126511E-01
       1.3319842E-01
       9.5147020E-02
       1.7268556E-01
       1.1247084E-01
       1.4778118E-01
       2.1962155E-01
       1.3312502E-01
       9.4901126E-02
       2.3803031E-02
       7.4060208E-02
       1.1263853E-01
       8.1105421E-02
       1.0881926E-03
       1.2048264E-01
       1.9801464E-01
       1.2216501E-01
       2.7555831E-07
       1.7607380E-02
       4.8531553E-02
       3.6344253E-02
       4.0841860E-02
       5.6337266E-02
       8.0544070E-02
       1.8063546E-01
       1.7572673E-01
       2.2169519E-01
       2.2283999E-02
       9.1663574E-02
       1.3018322E-02
       2.4150852E-02
       9.0382431E-03
       1.8609997E-02
       9.1581660E-03
       1.2685630E-01
       9.3634168E-02
       1.7023486E-01
       1.7079679E-01
       1.5391562E-01
       2.1987646E-01
       1.6768955E-01
       1.9392224E-01
       1.7493487E-01
       4.5351704E-02
       3.2991891E-02
       1.3419158E-01
       2.9587471E-04
       1.0127471E-02
       3.9787488E-03
       1.5494378E-04
       1.4448068E-06
       3.3978353E-07
       1.8229537E-06
       6.2941416E-07
       2.0426886E-06
       5.8496265E-06
       9.0334681E-08
       2.8665653E-02
       1.2385265E-05
       2.1784943E-07
       3.5014043E-08
       1.1243235E-07
       1.2251565E-07
       2.8263699E-07
       1.3676059E-04
       1.0622726E-06
       3.3149173E-07
       4.3595391E-05
       9.6120620E-03
       3.3223723E-07
       3.9085180E-06
       1.6295352E-05
       1.2213604E-02
       4.1420863E-05
       7.9010877E-06
       2.2733150E-05
       1.0072715E-06
       2.0276351E-03
       3.9746239E-05
       3.0930885E-06
       9.1094907E-04
       1.1167947E-03
       7.1951161E-06
       9.3330461E-06
       1.6440548E-04
       2.5095530E-04
       4.4072222E-07
       8.5640738E-06
       9.9999999E-09
       5.8571557E-05
       1.6498690E-07
       4.1800456E-06
       2.8297403E-06
       4.7162130E-04
       1.7394326E-04
       1.0428004E-07
       2.7008597E-08
       2.9615335E-08
       8.4864580E-08
       3.6170056E-07
       1.6462443E-06
       2.8548439E-06
       2.9077049E-02
       1.5545553E-01
       6.2481065E-03
       1.1288783E-02
       1.3998168E-02
       1.4297101E-01
       2.7405558E-03
       7.2800445E-03
       5.0894999E-03
       5.0114103E-03
       1.5290585E-03
       4.7363390E-03
       4.6186131E-03
       2.0738622E-03
       4.2163348E-04
       9.8915327E-04
       1.0957295E-03
       1.4740130E-03
       1.5830990E-03
       1.5616956E-04
       8.1461496E-04
       2.3722462E-03
       2.3451026E-03
       5.0456267E-03
       3.5746047E-02
       6.1603785E-02
       1.7142276E-01
       7.1902069E-02
       2.1769083E-01
       1.9307177E-01
       2.1212907E-01
       1.3390240E-01
       7.4238154E-02
       9.3366016E-02
       1.0015972E-01
       5.1251857E-02
       1.1743118E-01
       3.4626107E-02
       1.5052275E-01
       1.6139171E-01
       1.8582555E-01
       2.0323376E-01
       1.9696696E-01
       3.1181786E-02
       1.6561243E-02
       6.0514614E-02
       8.4023069E-03
       9.3246045E-03
       1.0152900E-03
       4.6208371E-03
       1.0386918E-04
       3.5370385E-03
       1.5995649E-03
       2.2399285E-07
       5.1691156E-08
       2.2922669E-08
       7.7897767E-07
       3.7571271E-05
       1.7241715E-07
       2.6870696E-07
       1.3254088E-04
       8.5584684E-04
       3.1378560E-06
       9.1598959E-05
       1.8134624E-06
       2.4207127E-05
       1.7757901E-05
       8.0500187E-05
       3.5639128E-05
       8.4647494E-07
       6.3453478E-07
       9.9999999E-09
       7.5536752E-06
       1.1427338E-07
       4.3275411E-05
       1.4393866E-06
       5.4973298E-04
       1.3277897E-05
       8.3519200E-08
       2.5803121E-05
       1.5460103E-05
       3.9758689E-04
       1.0783906E-05
       1.6631028E-02
       3.7948396E-04
       3.5016632E-08
       2.1301928E-04
       2.6741996E-03
       1.3878199E-08
       1.5995037E-08
       5.5368777E-04
       6.4299146E-04
       2.8213816E-04
       1.6770789E-04
       1.3674844E-05
       1.8687766E-03
       7.6968461E-04
       1.6069978E-03
       4.0377521E-03
       7.2944865E-04
       6.7281106E-05
       2.8356058E-04
       3.5102470E-04
       9.9999999E-09
       3.1438994E-08
       2.7016370E-07
       4.8755589E-06
       3.0493479E-03
       9.3837510E-03
       2.4460497E-03
       1.0399819E-03
       3.8879035E-04
       7.5585153E-04
       2.0307613E-03
       7.4565945E-02
       6.0784595E-02
       1.1776152E-01
       9.8703089E-02
       4.5222943E-02
       7.1440753E-02
       6.7214411E-02
       2.7399338E-02
       9.4914915E-03
       1.6625454E-02
       1.4088947E-02
       1.3252976E-01
       2.4651159E-01
       1.8359167E-01
       1.9874878E-01
       2.2215936E-01
       1.9789929E-01
       2.2181078E-01
       2.6623154E-01
       2.4376597E-01
       2.7105064E-01
       2.4570663E-01
       2.6253785E-01
       3.0875679E-01
       2.8433455E-01
       2.9950563E-01
       2.8939469E-01
       2.7339622E-01
       2.3522320E-01
       2.1377903E-01
       2.6938189E-01
       2.4356051E-01
       2.6019375E-01
       3.0219624E-01
       2.8490513E-01
       2.4191074E-01
       2.6018362E-01
       2.2167877E-01
       1.9718928E-01
       2.3543688E-01
       2.0555850E-01
       2.3218113E-01
       2.1561215E-01
       2.2314358E-01
       2.2192819E-01
       2.4049593E-01
       2.6463489E-01
       2.4727687E-01
       1.9290256E-01
       2.5731312E-01
       2.6870487E-01
       2.6424794E-01
       2.4151929E-01
       2.2266211E-01
       2.3277073E-01
       3.0675818E-01
       2.4892105E-01
       3.0899365E-01
       2.8177143E-01
       2.8684871E-01
       3.0051329E-01
       3.4560905E-01
       3.2738506E-01
       3.3504021E-01
       2.8005967E-01
       3.0084506E-01
       3.4548351E-01
       3.2493097E-01
       3.4597948E-01
       2.9090571E-01
       3.9073128E-01
       2.8217941E-01
       3.6954353E-01
       2.6138169E-01
       3.1187592E-01
       3.6573924E-01
       3.7795548E-01
       3.8270352E-01
       4.2159663E-01
       4.0740661E-01
       4.1738534E-01
       3.7777938E-01
       2.8042059E-01
       2.9458458E-01
       3.9782761E-01
       3.9671545E-01
       4.0453807E-01
       4.5057994E-01
       4.3517589E-01
       3.9704408E-01
       4.4863901E-01
       2.6844639E-01
       2.8885066E-01
       4.2225978E-01
       4.1033655E-01
       4.1896363E-01
       4.3284814E-01
       4.4784675E-01
       2.2713982E-01
       2.8898581E-01
       4.7599182E-01
       2.8065420E-01
       3.1498403E-01
       4.5816484E-01
       4.7864945E-01
       2.1910645E-01
       3.0142677E-01
       3.2156768E-01
       4.6416857E-01
       5.0414638E-01
       4.9189767E-01
       5.2653077E-01
       5.2442010E-01
       2.5516993E-01
       2.1826277E-01
       2.6699678E-01
       1.4704999E-01
       2.7164460E-01
       1.8742468E-01
       2.0049612E-01
       1.6916858E-01
       5.0219584E-01
       5.7937747E-01
       1.4872434E-01
       5.0525152E-01
       5.0939100E-01
       5.5268010E-01
       5.5113705E-01
       9.7948287E-02
       1.6383646E-01
       1.2696147E-01
       6.2772202E-02
       9.9953010E-02
       9.7914358E-02
       4.9907978E-01
       4.7237956E-01
       5.2635469E-01
       5.2926838E-01
       6.1645455E-02
       3.4741950E-02
       4.5841168E-01
       5.7043081E-01
       5.5887736E-01
       5.0060516E-01
       4.4947545E-02
       6.1543546E-01
       5.0177302E-01
       4.7312385E-01
       7.9438492E-02
       5.8229668E-01
       5.9594326E-01
       5.9963516E-01
       6.3159090E-01
       5.7322665E-01
       6.3159843E-01
       6.0819572E-01
       5.9903521E-01
       5.9847682E-01
       5.8976528E-01
       5.5761415E-01
       5.4683763E-01
       6.4080949E-01
       6.2354511E-01
       6.6115016E-01
       6.1485758E-01
       6.2734012E-01
       7.5507181E-02
       6.8033879E-08
       1.4093751E-08
       9.9999999E-09
       9.9999999E-09
       9.9999999E-09
       9.9999999E-09
       9.9999999E-09
       9.9999999E-09
       9.9999999E-09
       5.0507157E-08
       3.6663030E-08
       9.9999999E-09
       9.9999999E-09
       9.9999999E-09
       9.9999999E-09
       1.1791746E-08
       9.9999999E-09
       8.3211542E-08
       9.9999999E-09
       9.9999999E-09
       2.3049581E-08
       9.9999999E-09
       1.2595361E-08
       1.5248374E-08
       9.9999999E-09
       3.0624943E-02
       6.9168711E-05
       4.1945536E-05
       2.2481749E-04
       1.5111128E-04
       1.2633351E-04
       5.6776363E-04
       5.8946730E-03
       1.5543353E-03
       8.3353192E-03
       9.7556644E-03
       3.0372859E-03
       4.4017023E-03
       1.6521558E-03
       6.9065753E-03
       1.5460596E-02
       2.6215658E-02
       2.0195619E-02
       3.5791861E-02
       3.7361212E-02
       1.9811404E-02
       6.8160521E-03
       1.2779786E-02
       2.3459809E-02
       2.0374344E-02
       6.6393092E-02
       4.0809157E-02
       3.5781407E-02
       5.2137107E-02
       3.6405034E-02
       4.7588968E-02
       1.4041537E-02
       5.0468561E-02
       2.1701492E-02
       7.6510278E-02
       3.4240861E-02
       6.9364300E-02
       9.2963571E-02
       3.5899029E-02
       3.4816261E-02
       5.6632636E-02
       7.3550461E-02
       1.2785715E-01
       1.0743254E-01
       8.0989932E-02
       1.4019889E-01
       1.0046137E-01
       1.2603951E-01
       1.0670416E-01
       8.5137869E-02
       1.2326994E-01
       1.0381694E-01
       1.1114730E-01
       7.2953363E-02
       1.1271085E-01
       1.8148487E-01
       1.4896917E-01
       1.5185821E-01
       9.0424540E-07
       2.6906642E-06
       7.9959727E-06
       1.2548931E-05
       1.8361789E-05
       1.0603338E-04
       5.8745129E-07
       2.0279335E-07
       2.5002034E-06
       1.7338499E-08
       5.4191321E-05
       2.8248610E-03
       1.3317471E-04
       5.1522641E-05
       9.2984045E-04
       1.0407069E-03
       4.4303231E-04
       1.2546809E-04
       1.5813613E-04
       3.1757316E-04
       5.6428482E-04
       1.1804506E-03
       2.1603076E-04
       1.9120952E-05
       6.6598831E-05
       5.5689034E-05
       2.4641519E-05
       2.8150902E-05
       6.7057402E-05
       3.8857362E-06
       5.8132915E-05
       1.0727419E-05
       3.1523892E-06
       7.4342956E-06
       9.2425679E-06
       1.0603824E-04
       1.8965043E-07
       6.0844475E-06
       7.3210827E-03
       2.4745109E-03
       7.1704519E-04
       2.5967320E-04
       3.6544204E-03
       1.5003713E-01
       1.7951568E-01
       4.9863791E-02
       4.8127096E-02
       6.9541955E-02
       3.6243051E-02
       3.1384451E-02
       1.3823239E-02
       2.0032966E-01
       2.6033077E-01
       3.0555519E-01
       2.8251679E-01
       2.8726848E-01
       3.1864886E-01
       3.1169896E-01
       2.8571170E-01
       3.3737682E-01
       3.3260633E-01
       3.0424874E-01
       3.4570421E-01
       2.8832140E-01
       3.8123333E-01
       2.6232852E-01
       2.9030524E-01
       3.5684766E-01
       3.1017370E-01
       3.3203045E-01
       2.9883639E-01
       1.5037551E-01
       2.6504333E-01
       2.4393567E-01
       3.5823937E-01
       3.7598948E-01
       2.1074920E-01
       1.9394797E-01
       2.5947241E-01
       3.2677714E-01
       3.5419368E-01
       2.4824356E-01
       3.0363560E-01
       3.6712518E-01
       3.5009459E-01
       4.8490716E-01
       4.3296650E-01
       5.4600998E-01
       6.0463816E-01
       6.6433548E-01
       6.3074957E-01
       6.3750412E-01
       6.8269930E-01
       6.6838552E-01
       6.4833033E-01
       7.0440122E-01
       6.6577626E-01
       6.2403081E-01
       5.5103391E-01
       5.4106072E-01
       5.6980241E-01
       5.8029072E-01
       5.3247361E-01
       5.1837550E-01
       5.4475901E-01
       6.5878509E-01
       6.9672267E-01
       1.0047978E-08
       9.9999999E-09
       9.9999999E-09
       9.9999999E-09
       3.6914317E-04
       6.0799161E-04
       5.7454673E-04
       1.9538145E-03
       6.2965892E-04
       1.9266048E-02
       7.3785613E-02
       6.3239759E-02
       2.4182847E-03
       1.3997960E-03
       6.9660658E-03
       4.3670786E-02
       4.6506405E-02
       6.7808555E-02
       7.9148652E-02
       1.8194754E-01
       2.2467508E-07
       5.3756829E-08
       8.4531772E-07
       9.9999999E-09
       4.9956233E-07
       2.8702270E-06
       1.5219612E-08
       4.1673659E-07
       9.9999999E-09
       3.4152420E-08
       9.9999999E-09
       9.9999999E-09
       5.4295925E-08
       1.6936222E-07
       9.9999999E-09
       7.5299335E-06
       2.3704758E-05
       4.0005461E-08
       6.4096307E-08
       1.0145380E-03
       2.6909016E-03
       6.3655263E-03
       8.9116666E-03
       6.1457064E-03
       1.5098323E-02
       1.0481815E-02
       3.7300491E-05
       3.7653167E-05
       3.2879768E-04
       5.7463518E-04
       4.1790084E-06
       1.1565736E-04
       1.7418614E-04
       1.3644436E-06
       1.1339001E-04
       3.9976686E-04
       1.0101974E-03
       2.5485252E-03
       2.0921841E-03
       1.3001264E-03
       1.2345853E-04
       3.2797608E-03
       1.1517046E-03
       2.1080007E-03
       5.2906766E-04
       2.1116344E-03
       2.5630609E-04
       6.3813085E-05
       1.0705388E-04
       1.6112824E-05
       2.0496609E-04
       3.7408966E-05
       1.4836301E-05
       8.3367038E-04
       8.1752254E-03
       4.4750807E-03
       7.6177051E-03
       2.4783607E-05
       2.6911597E-05
       1.1471486E-05
       6.5960090E-05
       3.3658226E-05
       1.5548730E-05
       1.3716739E-04
       7.5553369E-07
       5.2344509E-04
       5.5804581E-05
       2.3962532E-01
       2.3987296E-01
       1.8465998E-01
       2.1769285E-01
       2.2739887E-01
       1.9886723E-01
       2.2159979E-01
       2.6454839E-01
       3.5657733E-01
       3.3801263E-01
       3.4589621E-01
       3.5139833E-01
       3.5078496E-01
       3.7355935E-01
       3.2878622E-01
       3.2931728E-01
       3.5284425E-01
       3.3424660E-01
       4.8762951E-01
       6.5670451E-01
       9.1952252E-01
       9.9735158E-01
       6.3177417E-01
       7.9925986E-01
       7.4572212E-01
       7.7187669E-01
       7.7298817E-01
       7.1204576E-01
       8.4557047E-01
       6.7812990E-01
       7.9683405E-01
       8.7500798E-01
       6.9975303E-01
       4.3687688E-01
       8.4568658E-01
       8.0703098E-01
       7.1087930E-01
       6.9865832E-01
       7.3155552E-01
       8.4517953E-01
       7.4925371E-01
       5.9324770E-01
       7.3059921E-01
       6.4368643E-01
       8.4944764E-01
       6.9947787E-01
       7.8570978E-01
       7.5645294E-01
       7.7254842E-01
       7.3787996E-01
       7.9075262E-01
       7.4057268E-01
       7.7438762E-01
       7.5462155E-01
       6.5335802E-01
       7.4933614E-01
       8.0883855E-01
       6.8489658E-01
       7.3376319E-01
       1.2016386E+00
       8.6908510E-01
       8.4035988E-01
       8.9287597E-01
       7.7493547E-01
       8.4511233E-01
       6.1466725E-01
       6.2482189E-01
       8.6037119E-01
       8.7734114E-01
       8.8069811E-01
       9.3937760E-01
       8.5044836E-01
       8.2632778E-01
       7.9123916E-01
       5.9815199E-01
       7.1896373E-01
       6.7248948E-01
       6.9313202E-01
       7.6332355E-01
       7.9062004E-01
       6.8546615E-01
       6.5796042E-01
       4.9216875E-01
       7.5423913E-01
       1.0057239E+00
       7.3975573E-01
       8.1856475E-01
       5.3956216E-01
       8.2561226E-01
       5.6720176E-01
       5.7505575E-01
       5.6420018E-01
       5.1724320E-01
       5.2186604E-01
       4.6965470E-01
       5.1251999E-01
       4.8050004E-01
       4.4921068E-01
       4.4550434E-01
       4.6425808E-01
       4.2625662E-01
       4.7453755E-01
       4.2112296E-01
       4.3879012E-01
       4.4678317E-01
       4.1637866E-01
       4.2701983E-01
       4.0083836E-01
       3.8360137E-01
       3.7871132E-01
       3.9958160E-01
       4.1953499E-01
       4.1859812E-01
       3.5921699E-01
       3.9992804E-01
       5.2643200E-01
       5.6585187E-01
       5.0986089E-01
       5.6446710E-01
       6.6484413E-01
       6.7068733E-01
       6.5479207E-01
       6.7393785E-01
       6.5647819E-01
       6.3336851E-01
       6.8203300E-01
       6.4972319E-01
       7.3526739E-01
       6.6368510E-01
       7.2086214E-01
       7.0220584E-01
       7.5355992E-01
       6.8392294E-01
       7.2199704E-01
       7.0157892E-01
       6.7576244E-01
       7.3434466E-01
       6.8903473E-01
       7.2625362E-01
       6.9379924E-01
       7.1668842E-01