# vtk DataFile Version 3.0
# Solution du M1 TR
ASCII
DATASET UNSTRUCTURED_GRID
POINTS   3280  float
0.0000000E+00  0.0000000E+00  0.1411176E+01
0.2000000E+01  0.0000000E+00  0.1139310E+00
0.2000000E+01  0.1000000E+01  0.1190174E+00
0.0000000E+00  0.1000000E+01  0.1403479E+01
0.1000000E+01  0.0000000E+00  0.7309224E+00
0.1000000E+01  0.1000000E+01  0.7207358E+00
0.1500000E+01  0.5000000E+00  0.1734366E+01
0.1500000E+01  0.0000000E+00  0.3505634E+00
0.1723284E+01  0.3570951E+00  0.1340061E+00
0.1500000E+01  0.2500000E+00  0.5761982E+00
0.1515103E+01  0.2763186E+00  0.5942233E+00
0.1594866E+01  0.2826386E+00  0.4427330E+00
0.1562500E+01  0.1875000E+00  0.4773761E+00
0.1534357E+01  0.1819434E+00  0.4523208E+00
0.1561083E+01  0.3343258E+00  0.6432510E+00
0.1750000E+01  0.0000000E+00  0.2078840E+00
0.1503267E+01  0.1622339E+00  0.4293007E+00
0.1514910E+01  0.2261192E+00  0.5370202E+00
0.1610795E+01  0.1290247E+00  0.3585998E+00
0.1539062E+01  0.1536458E+00  0.4088357E+00
0.1510772E+01  0.1982718E+00  0.4826481E+00
0.1541862E+01  0.2179813E+00  0.5238288E+00
0.1475030E+01  0.2178147E+00  0.5182295E+00
0.1539206E+01  0.2578835E+00  0.5675457E+00
0.1521085E+01  0.2465697E+00  0.5707898E+00
0.1496499E+01  0.2146241E+00  0.5159081E+00
0.1481433E+01  0.1870688E+00  0.4556144E+00
0.1586261E+01  0.1960616E+00  0.4738459E+00
0.1460896E+01  0.2899333E+00  0.6328542E+00
0.1542195E+01  0.2867649E+00  0.5331362E+00
0.1486080E+01  0.2754813E+00  0.6180720E+00
0.1536278E+01  0.3247610E+00  0.6981427E+00
0.1510131E+01  0.3295675E+00  0.8653249E+00
0.1455545E+01  0.2514402E+00  0.5715290E+00
0.1610995E+01  0.1909452E+00  0.4542445E+00
0.1564462E+01  0.2395252E+00  0.5396773E+00
0.1571524E+01  0.3026484E+00  0.4165320E+00
0.1613657E+01  0.2555806E+00  0.4597642E+00
0.1633998E+01  0.2714643E+00  0.3987566E+00
0.1534973E+01  0.3650914E+00  0.1015947E+01
0.1583157E+01  0.2286349E+00  0.5153344E+00
0.1586501E+01  0.1581416E+00  0.4180009E+00
0.1651985E+01  0.2274641E+00  0.4372517E+00
0.1619170E+01  0.2936434E+00  0.3553299E+00
0.1678889E+01  0.2641389E+00  0.3299744E+00
0.1642286E+01  0.2930521E+00  0.3313125E+00
0.1526415E+01  0.3446283E+00  0.8903596E+00
0.1662420E+01  0.3044259E+00  0.2815811E+00
0.1636786E+01  0.2469276E+00  0.4482726E+00
0.1588953E+01  0.3366240E+00  0.4579709E+00
0.1616427E+01  0.3314099E+00  0.2523232E+00
0.1598305E+01  0.3102698E+00  0.3379332E+00
0.1655410E+01  0.2614708E+00  0.3812823E+00
0.1487553E+01  0.3072167E+00  0.6884649E+00
0.1520126E+01  0.3036443E+00  0.5642177E+00
0.1477894E+01  0.2544664E+00  0.5923568E+00
0.1567847E+01  0.2133479E+00  0.5125257E+00
0.1663947E+01  0.3299725E+00  0.1957154E+00
0.1567022E+01  0.2696000E+00  0.5188426E+00
0.1678598E+01  0.3509559E+00  0.1444572E+00
0.1611933E+01  0.3827205E+00  0.6600744E+00
0.1640491E+01  0.3197373E+00  0.2634695E+00
0.1588015E+01  0.2526666E+00  0.5113920E+00
0.1708471E+01  0.3144917E+00  0.2058013E+00
0.1606944E+01  0.3564315E+00  0.4733578E+00
0.1604614E+01  0.2314093E+00  0.4883962E+00
0.1643491E+01  0.3631133E+00  0.1729652E+00
0.2000000E+01  0.5000000E+00  0.1012930E+00
0.1494727E+01  0.3621796E+00  0.1165520E+01
0.1701807E+01  0.3477237E+00  0.1497749E+00
0.1572156E+01  0.3701847E+00  0.8698088E+00
0.1688392E+01  0.3285111E+00  0.1963775E+00
0.1695932E+01  0.3904821E+00  0.1266489E+00
0.1636337E+01  0.3418163E+00  0.1904670E+00
0.1505941E+01  0.9448485E-01  0.3587572E+00
0.1423727E+01  0.1910920E+00  0.4504755E+00
0.1481447E+01  0.3359634E+00  0.9892283E+00
0.1441613E+01  0.3726133E+00  0.1262948E+01
0.1466699E+01  0.3599060E+00  0.1180151E+01
0.1476682E+01  0.4107296E+00  0.1496032E+01
0.1434448E+01  0.3273535E+00  0.8738391E+00
0.1464523E+01  0.3867258E+00  0.1376846E+01
0.1456903E+01  0.3373583E+00  0.1009248E+01
0.1454188E+01  0.3132491E+00  0.7383252E+00
0.1424069E+01  0.2919612E+00  0.6438957E+00
0.1490969E+01  0.3884111E+00  0.1359978E+01
0.1428051E+01  0.4202828E+00  0.1528832E+01
0.1513790E+01  0.3782958E+00  0.1223542E+01
0.1547789E+01  0.4092466E+00  0.1293352E+01
0.1535154E+01  0.3889763E+00  0.1214439E+01
0.1512699E+01  0.4170463E+00  0.1484321E+01
0.1441554E+01  0.3983607E+00  0.1450288E+01
0.1395941E+01  0.3853832E+00  0.1252560E+01
0.1420578E+01  0.3854393E+00  0.1339738E+01
0.1408336E+01  0.3518173E+00  0.1032002E+01
0.1549967E+01  0.3074339E+00  0.4620906E+00
0.1651639E+01  0.4114272E+00  0.4707543E+00
0.1668616E+01  0.3788978E+00  0.1311427E+00
0.1674624E+01  0.4027285E+00  0.1264592E+00
0.1706988E+01  0.4343785E+00  0.1178700E+00
0.1673984E+01  0.4357547E+00  0.3318419E+00
0.1695270E+01  0.4139894E+00  0.1209913E+00
0.1737273E+01  0.4034108E+00  0.1172349E+00
0.1645630E+01  0.3875965E+00  0.3632921E+00
0.1625874E+01  0.4052508E+00  0.7036046E+00
0.1627808E+01  0.4540126E+00  0.9402697E+00
0.1587158E+01  0.4136289E+00  0.1089794E+01
0.1633718E+01  0.4293591E+00  0.7740661E+00
0.1651607E+01  0.4466828E+00  0.6574518E+00
0.1605650E+01  0.4356658E+00  0.1065022E+01
0.1682168E+01  0.4808869E+00  0.3595634E+00
0.1671711E+01  0.4594749E+00  0.4538593E+00
0.1698428E+01  0.4596870E+00  0.1176259E+00
0.1646221E+01  0.4851828E+00  0.8144825E+00
0.1607747E+01  0.4151289E+00  0.9371218E+00
0.1584205E+01  0.4841185E+00  0.1369237E+01
0.1747573E+01  0.4622079E+00  0.1126163E+00
0.1568396E+01  0.4481495E+00  0.1377876E+01
0.1601760E+01  0.4629165E+00  0.1199889E+01
0.1723356E+01  0.4540167E+00  0.1154185E+00
0.1732897E+01  0.4294241E+00  0.1151605E+00
0.1722218E+01  0.4972746E+00  0.1137226E+00
0.1715121E+01  0.4754441E+00  0.1145569E+00
0.1584567E+01  0.4345797E+00  0.1220376E+01
0.1563465E+01  0.4258523E+00  0.1311791E+01
0.1534166E+01  0.4440258E+00  0.1526465E+01
0.1615090E+01  0.4918227E+00  0.1134443E+01
0.1717469E+01  0.4134541E+00  0.1189789E+00
0.1718488E+01  0.3909170E+00  0.1222962E+00
0.1741353E+01  0.3769080E+00  0.1219147E+00
0.1781199E+01  0.4241746E+00  0.1112437E+00
0.2000000E+01  0.2500000E+00  0.1382838E+00
0.1756308E+01  0.4199875E+00  0.1137535E+00
0.1762447E+01  0.3937207E+00  0.1149381E+00
0.1765097E+01  0.4438197E+00  0.1118977E+00
0.1807974E+01  0.4625425E+00  0.1082731E+00
0.1789176E+01  0.4471344E+00  0.1098883E+00
0.1514158E+01  0.1287364E+00  0.3770959E+00
0.1777674E+01  0.4803377E+00  0.1104836E+00
0.1811145E+01  0.4395021E+00  0.1083903E+00
0.1850404E+01  0.4566449E+00  0.1055941E+00
0.1748483E+01  0.3522599E+00  0.1328986E+00
0.1731235E+01  0.3304535E+00  0.1607765E+00
0.1777870E+01  0.3654441E+00  0.1191099E+00
0.1748149E+01  0.2821176E+00  0.2364211E+00
0.1732875E+01  0.3039003E+00  0.2099941E+00
0.1708314E+01  0.2807181E+00  0.2678307E+00
0.1767650E+01  0.3193756E+00  0.1557130E+00
0.1372661E+01  0.1704076E+00  0.4532726E+00
0.1411157E+01  0.2494459E+00  0.5182358E+00
0.1448000E+01  0.2246098E+00  0.4970833E+00
0.1360382E+01  0.2278583E+00  0.4834181E+00
0.1433680E+01  0.2431125E+00  0.5357240E+00
0.1388814E+01  0.2314916E+00  0.4858008E+00
0.1314549E+01  0.2124991E+00  0.5039234E+00
0.1404157E+01  0.2007613E+00  0.4643407E+00
0.1415035E+01  0.1072182E+00  0.4099501E+00
0.1520299E+01  0.1091515E+00  0.3598350E+00
0.1459010E+01  0.1690672E+00  0.4269484E+00
0.1436337E+01  0.2690050E+00  0.6068781E+00
0.1443480E+01  0.1263360E+00  0.4046315E+00
0.1625000E+01  0.0000000E+00  0.2739443E+00
0.1414954E+01  0.2197329E+00  0.4825233E+00
0.1335299E+01  0.2266424E+00  0.4927786E+00
0.1396801E+01  0.1612344E+00  0.4361446E+00
0.1792033E+01  0.3934232E+00  0.1121465E+00
0.1541310E+01  0.1264947E+00  0.3704147E+00
0.1483859E+01  0.1256971E+00  0.3871432E+00
0.1500341E+01  0.1139400E+00  0.3736354E+00
0.1498380E+01  0.1421255E+00  0.3938965E+00
0.1478242E+01  0.1468909E+00  0.4059831E+00
0.1453147E+01  0.1972183E+00  0.4643866E+00
0.1348833E+01  0.2067866E+00  0.4786783E+00
0.1368157E+01  0.2800764E+00  0.5484569E+00
0.1250000E+01  0.0000000E+00  0.5153365E+00
0.1496272E+01  0.2780308E-01  0.3475683E+00
0.1430228E+01  0.1622338E+00  0.4213479E+00
0.1544491E+01  0.1012427E+00  0.3415165E+00
0.1505524E+01  0.5428530E-01  0.3468181E+00
0.1576405E+01  0.1180891E+00  0.3522987E+00
0.1526885E+01  0.8834234E-01  0.3420508E+00
0.1558557E+01  0.6358195E-01  0.3184000E+00
0.1372206E+01  0.9428859E-01  0.4373883E+00
0.1414069E+01  0.8636887E-01  0.4096224E+00
0.1351230E+01  0.1581055E+00  0.4635903E+00
0.1371634E+01  0.2528708E+00  0.5064345E+00
0.1392978E+01  0.2694234E+00  0.5451072E+00
0.1321668E+01  0.2603105E+00  0.5159719E+00
0.1392566E+01  0.3027057E+00  0.6136471E+00
0.1345601E+01  0.2495441E+00  0.5003856E+00
0.1349996E+01  0.1827855E+00  0.4698046E+00
0.1475238E+01  0.9618066E-01  0.3736869E+00
0.1487372E+01  0.4556180E+00  0.1686404E+01
0.1432024E+01  0.3509343E+00  0.1086904E+01
0.1619231E+01  0.5383449E+00  0.1044074E+01
0.1532505E+01  0.4233173E+00  0.1443828E+01
0.1547332E+01  0.4788657E+00  0.1571498E+01
0.1627786E+01  0.4750493E+00  0.9939306E+00
0.1750658E+01  0.4911384E+00  0.1117127E+00
0.1783313E+01  0.5336292E+00  0.1096964E+00
0.1744147E+01  0.5299352E+00  0.1124251E+00
0.1772978E+01  0.5077787E+00  0.1103016E+00
0.1739682E+01  0.5092411E+00  0.1124129E+00
0.1715917E+01  0.5251974E+00  0.1146788E+00
0.1809547E+01  0.4999146E+00  0.1076592E+00
0.1486188E+01  0.5335558E+00  0.1692839E+01
0.1695320E+01  0.5058771E+00  0.1843063E+00
0.1793562E+01  0.5145404E+00  0.1087709E+00
0.1827482E+01  0.5355643E+00  0.1064062E+00
0.1805457E+01  0.5332234E+00  0.1079589E+00
0.1812320E+01  0.5734372E+00  0.1078712E+00
0.1794794E+01  0.5557356E+00  0.1089738E+00
0.1637325E+01  0.5533192E+00  0.8127380E+00
0.1761146E+01  0.5591762E+00  0.1112478E+00
0.1789115E+01  0.5788851E+00  0.1095606E+00
0.1693317E+01  0.6123782E+00  0.1254909E+00
0.1522396E+01  0.5359490E+00  0.1621997E+01
0.1814654E+01  0.6254783E+00  0.1118156E+00
0.1726166E+01  0.5505978E+00  0.1139131E+00
0.1691322E+01  0.5307786E+00  0.2088668E+00
0.1516987E+01  0.5143680E+00  0.1682867E+01
0.1661909E+01  0.5147686E+00  0.6289901E+00
0.1761865E+01  0.6508066E+00  0.1297610E+00
0.1692174E+01  0.5698207E+00  0.1189363E+00
0.1780214E+01  0.6037461E+00  0.1129136E+00
[...]
POINT_DATA    3280
SCALARS hauteur float
LOOKUP_TABLE DEFAULT
       1.3111760E+00
       1.3930996E-02
       1.9017387E-02
       1.3034792E+00
       6.3092238E-01
       6.2073582E-01
       1.3436601E-01
       2.5056341E-01
       3.4006060E-02
       4.7619823E-01
       4.9422332E-01
       3.4273305E-01
       3.7737612E-01
       3.5232082E-01
       2.1246704E-01
       1.0788403E-01
       3.2930072E-01
       4.3702015E-01
       2.5859978E-01
       3.0883569E-01
       3.8264815E-01
       4.2382882E-01
       4.1822950E-01
       4.6754568E-01
       4.7078978E-01
       4.1590811E-01
       3.5561441E-01
       3.7384586E-01
       5.3285423E-01
       4.3313616E-01
       5.1807199E-01
       2.9907224E-01
       3.5844474E-01
       4.7152896E-01
       3.5424451E-01
       4.3967729E-01
       3.1653205E-01
       3.5976419E-01
       2.9875663E-01
       1.4432756E-01
       4.1533439E-01
       3.1800093E-01
       3.3725170E-01
       2.5532993E-01
       2.2997445E-01
       2.3131248E-01
       2.2178854E-01
       1.8158106E-01
       3.4827261E-01
       1.5563247E-01
       1.5232320E-01
       2.3793319E-01
       2.8128226E-01
       4.8797657E-01
       4.2524085E-01
       4.9235679E-01
       4.1252569E-01
       9.5715354E-02
       4.1884263E-01
       4.4457209E-02
       4.5705101E-02
       1.6346952E-01
       4.1139199E-01
       1.0580125E-01
       7.5191037E-02
       3.8839620E-01
       4.7750366E-02
       1.2929989E-03
       2.7885520E-01
       4.9774906E-02
       9.7000846E-02
       9.6377547E-02
       2.6648905E-02
       9.0467045E-02
       2.5875718E-01
       3.5047547E-01
       4.1118672E-01
       3.9931278E-01
       3.5772468E-01
       2.1526633E-01
       5.5273595E-01
       3.0520805E-01
       4.7085995E-01
       5.2487298E-01
       5.4389566E-01
       2.2998966E-01
       3.6126420E-01
       1.8612024E-01
       8.7851559E-02
       1.2301705E-01
       1.4841756E-01
       3.6577925E-01
       5.5126000E-01
       4.6844027E-01
       5.7052038E-01
       3.4627855E-01
       2.7235358E-02
       3.1142688E-02
       2.4788693E-02
       1.7870010E-02
       2.1765092E-02
       2.0991297E-02
       1.7234874E-02
       3.2391465E-02
       3.4419398E-02
       3.2129713E-02
       5.4413962E-02
       3.1710768E-02
       2.5981892E-02
       3.8802274E-02
       1.7709862E-02
       2.1124714E-02
       1.7625945E-02
       2.4489462E-02
       4.2593699E-02
       4.4587062E-02
       1.2616255E-02
       5.4120032E-02
       3.9777836E-02
       1.5418518E-02
       1.5160518E-02
       1.3722630E-02
       1.4556885E-02
       4.9056120E-02
       6.9004873E-02
       8.7730110E-02
       3.3663443E-02
       1.8978917E-02
       2.2296174E-02
       2.1914691E-02
       1.1243699E-02
       3.8283757E-02
       1.3753479E-02
       1.4938065E-02
       1.1897651E-02
       8.2731408E-03
       9.8883360E-03
       2.7709592E-01
       1.0483624E-02
       8.3903387E-03
       5.5941351E-03
       3.2898635E-02
       6.0776512E-02
       1.9109928E-02
       1.3642113E-01
       1.0999411E-01
       1.6783067E-01
       5.5713036E-02
       3.5327255E-01
       4.1823582E-01
       3.9708327E-01
       3.8341809E-01
       4.3572398E-01
       3.8580084E-01
       4.0392342E-01
       3.6434069E-01
       3.0995014E-01
       2.5983496E-01
       3.2694837E-01
       5.0687813E-01
       3.0463145E-01
       1.7394431E-01
       3.8252330E-01
       3.9277864E-01
       3.3614457E-01
       1.2146541E-02
       2.7041475E-01
       2.8714315E-01
       2.7363543E-01
       2.9389650E-01
       3.0598305E-01
       3.6438658E-01
       3.7867834E-01
       4.4845692E-01
       4.1533646E-01
       2.4756832E-01
       3.2134790E-01
       2.4151647E-01
       2.4681806E-01
       2.5229866E-01
       2.4205078E-01
       2.1840005E-01
       3.3738830E-01
       3.0962240E-01
       3.6359027E-01
       4.0643454E-01
       4.4510723E-01
       4.1597189E-01
       5.1364706E-01
       4.0038557E-01
       3.6980465E-01
       2.7368689E-01
       1.6625009E-01
       4.9345236E-01
       3.2312133E-02
       1.0395749E-01
       7.2260174E-02
       2.9624150E-02
       1.1712730E-02
       9.6964152E-03
       1.2425072E-02
       1.0301639E-02
       1.2412932E-02
       1.4678800E-02
       7.6592134E-03
       1.4221766E-01
       1.6227307E-02
       8.7709081E-03
       6.4062386E-03
       7.9588548E-03
       7.8711958E-03
       8.9737829E-03
       2.6530742E-02
       1.1247833E-02
       9.5605905E-03
       2.5490872E-02
       8.9268301E-02
       1.1815580E-02
       1.3913075E-02
       1.7039700E-02
       1.0142955E-01
       2.0213611E-02
       2.9760956E-02
       1.8936332E-02
       1.2913634E-02
       5.7445117E-02
       2.0057053E-02
       1.4626831E-02
       4.5147419E-02
       1.7327617E-01
       1.9893383E-02
       2.5879887E-02
       9.5452797E-02
       1.5424943E-01
       1.8088107E-02
       1.2351848E-01
       1.7812653E-03
       1.4461024E-01
       1.5122375E-02
       3.0689810E-02
       1.7966322E-02
       1.5651547E-01
       2.4694963E-01
       9.3668417E-03
       7.7745634E-03
       7.2000018E-03
       9.8380716E-03
       1.4513803E-02
       2.7639682E-02
       2.9930467E-02
       3.0285825E-01
       3.6635687E-01
       2.7541723E-01
       2.9020634E-01
       3.3466574E-01
       3.4483991E-01
       2.0299387E-01
       2.2430010E-01
       2.0724114E-01
       2.0697703E-01
       1.7645485E-01
       1.9849620E-01
       2.2990473E-01
       2.2092247E-01
       1.6522103E-01
       2.6475509E-01
       1.8902205E-01
       2.4307732E-01
       1.8421023E-01
       1.4174943E-01
       2.1551978E-01
       3.1169345E-01
       2.7906003E-01
       3.1583815E-01
       2.6100246E-01
       2.9053206E-01
       3.6415392E-01
       3.0539532E-01
       3.9796268E-01
       3.7974515E-01
       3.9485236E-01
       3.4986086E-01
       2.9323045E-01
       3.3193609E-01
       3.1801906E-01
       2.7541151E-01
       3.2701935E-01
       2.5943554E-01
       5.0958262E-01
       5.6473421E-01
       5.7051119E-01
       5.9820890E-01
       4.9929234E-01
       1.7050805E-01
       1.2262762E-01
       2.3896491E-01
       9.4674061E-02
       9.6320765E-02
       4.5852695E-02
       7.3481399E-02
       2.4989020E-02
       7.0657600E-02
       5.5035151E-02
       9.0900553E-03
       7.0402824E-03
       5.8444188E-03
       1.1082227E-02
       2.0269286E-02
       1.1305137E-02
       9.8980391E-03
       2.7072052E-02
       4.2369519E-02
       5.0310051E-02
       5.2723361E-02
       2.9583098E-02
       3.1252835E-02
       5.0384771E-02
       9.6183177E-02
       4.8550195E-02
       1.8266424E-02
       3.4146785E-02
       4.2768827E-02
       5.0299137E-02
       1.7590924E-02
       1.0695297E-01
       1.7342911E-02
       7.4954220E-02
       1.0443475E-01
       7.7959044E-03
       7.4126665E-02
       8.6426578E-02
       1.0962973E-01
       1.7577382E-02
       2.5805787E-01
       3.5698230E-02
       8.8122061E-03
       2.0709129E-01
       5.8705059E-02
       5.6254454E-03
       7.8116195E-03
       1.6826346E-01
       2.3859129E-01
       7.2550866E-02
       4.3357615E-02
       2.0875159E-01
       3.0782301E-01
       3.2036333E-01
       2.4886363E-01
       3.0442372E-01
       3.0141746E-01
       1.8684983E-01
       2.8911765E-01
       2.3416097E-01
       5.6429811E-03
       6.6375857E-03
       1.5899707E-02
       1.0350271E-01
       1.9199265E-01
       2.2192198E-01
       2.0090765E-01
       1.6955859E-01
       1.5640943E-01
       3.0784041E-01
       3.3653635E-01
       2.9510229E-01
       2.8373001E-01
       3.2793227E-01
       3.1909856E-01
       2.8270603E-01
       2.9408270E-01
       3.0836667E-01
       2.6391369E-01
       2.2836577E-01
       2.3768156E-01
       2.3149011E-01
       4.7945830E-01
       6.0543439E-01
       4.9435223E-01
       4.4999287E-01
       4.5926352E-01
       4.2004778E-01
       4.3169791E-01
       4.4670276E-01
       4.4141175E-01
       4.6538149E-01
       4.3086715E-01
       4.5212696E-01
       4.7706905E-01
       4.6205133E-01
       4.6497544E-01
       4.6050270E-01
       4.4620222E-01
       4.1796083E-01
       4.0518790E-01
       4.3709697E-01
       4.1952060E-01
       4.3366874E-01
       4.6291519E-01
       4.5125235E-01
       4.1620464E-01
       4.2985921E-01
       4.0206273E-01
       3.8338932E-01
       4.1161251E-01
       5.6646532E-01
       5.2993937E-01
       5.0720676E-01
       5.8110483E-01
       5.9996367E-01
       5.8210473E-01
       5.1529877E-01
       5.1646531E-01
       5.2582219E-01
       5.6677930E-01
       5.5652354E-01
       4.8170027E-01
       4.7800640E-01
       5.8745876E-01
       5.8416684E-01
       4.9645192E-01
       4.5542937E-01
       4.8584297E-01
       4.8810277E-01
       4.7671493E-01
       4.7621001E-01
       5.0673897E-01
       4.9198754E-01
       4.9458203E-01
       5.1126652E-01
       4.8638492E-01
       5.1207081E-01
       4.9813724E-01
       5.0979549E-01
       5.3373417E-01
       5.4354283E-01
       5.3763381E-01
       5.2532407E-01
       5.9512253E-01
       5.0191588E-01
       5.2539396E-01
       5.3682737E-01
       5.3914945E-01
       5.6875202E-01
       5.5738044E-01
       5.5978338E-01
       5.2847499E-01
       5.7557521E-01
       5.0682578E-01
       5.5111884E-01
       5.4997347E-01
       5.5622968E-01
       5.9085214E-01
       5.7909255E-01
       5.4594147E-01
       5.8695019E-01
       5.8753396E-01
       5.5090710E-01
       5.6890197E-01
       5.5845448E-01
       5.6451003E-01
       5.7637522E-01
       5.8839397E-01
       5.5806155E-01
       5.5270349E-01
       6.1053097E-01
       5.9401759E-01
       5.0556042E-01
       5.9667252E-01
       6.1146259E-01
       5.4010874E-01
       5.1447727E-01
       5.0676605E-01
       5.9933296E-01
       6.2781273E-01
       6.1983390E-01
       6.4720840E-01
       6.4418903E-01
       5.9211119E-01
       5.4010079E-01
       5.9905470E-01
       4.0532774E-01
       6.0491054E-01
       4.8781149E-01
       5.2015628E-01
       4.4846776E-01
       6.2989727E-01
       6.8504356E-01
       4.2421374E-01
       6.3091922E-01
       6.3506409E-01
       6.6114178E-01
       6.6475358E-01
       3.1359205E-01
       4.4132626E-01
       3.6667842E-01
       2.2900085E-01
       3.0659797E-01
       2.9784618E-01
       6.2800925E-01
       6.0782194E-01
       6.4802291E-01
       6.4559035E-01
       2.3017572E-01
       1.7110638E-01
       5.9590388E-01
       6.7966600E-01
       6.6840376E-01
       6.2060987E-01
       1.8678858E-01
       7.0718581E-01
       6.2423957E-01
       6.0232450E-01
       2.5747790E-01
       6.8325439E-01
       6.9526231E-01
       6.9092390E-01
       7.2333943E-01
       6.7405375E-01
       7.2118182E-01
       7.0568667E-01
       7.0032299E-01
       7.0061319E-01
       6.9423957E-01
       6.7071994E-01
       6.6202690E-01
       7.3129562E-01
       7.1853221E-01
       7.4525063E-01
       7.1262984E-01
       7.2126848E-01
       2.8491149E-01
       7.1973089E-03
       5.3520153E-03
       3.4046118E-03
       4.4253498E-03
       3.7897655E-03
       4.1112920E-03
       4.2472211E-03
       5.1859044E-03
       5.9276324E-03
       9.4228724E-03
       8.2290416E-03
       2.0309328E-03
       1.9579762E-03
       4.2461524E-03
       5.4844386E-03
       6.2062968E-03
       2.8138091E-03
       2.1297973E-02
       3.7652800E-03
       2.2472662E-03
       9.6496211E-03
       3.6631272E-03
       1.8281542E-02
       1.1428391E-02
       1.9381036E-03
       1.7279437E-01
       2.3635467E-02
       2.3127303E-02
       3.1316365E-02
       3.2381690E-02
       2.8564294E-02
       4.3940057E-02
       7.8466282E-02
       4.9706394E-02
       1.0397536E-01
       9.7876021E-02
       6.7268791E-02
       6.9760865E-02
       5.8835413E-02
       8.9768008E-02
       1.2939917E-01
       2.0568361E-01
       1.3530646E-01
       1.7223968E-01
       2.0933647E-01
       1.5757493E-01
       1.1694438E-01
       1.4129338E-01
       2.8568969E-01
       2.1092798E-01
       4.4282325E-01
       3.4775667E-01
       4.6258789E-01
       4.6600474E-01
       4.0050911E-01
       4.7416861E-01
       3.3452494E-01
       5.0633161E-01
       4.4099803E-01
       5.2646769E-01
       4.7847231E-01
       5.1459236E-01
       5.1231874E-01
       3.7458897E-01
       4.3470467E-01
       4.0643912E-01
       3.9014351E-01
       5.3572567E-01
       5.4851470E-01
       4.5765526E-01
       5.3850810E-01
       5.1155593E-01
       4.0294242E-01
       4.4312298E-01
       3.8976672E-01
       5.5566535E-01
       4.5180010E-01
       3.8182730E-01
       3.2588203E-01
       4.1926071E-01
       5.6093711E-01
       5.0400911E-01
       4.4507914E-01
       1.1173017E-02
       1.3225128E-02
       1.5803690E-02
       1.6575564E-02
       2.2786674E-02
       1.3976270E-01
       2.3771063E-02
       4.7282766E-02
       7.6495133E-02
       5.5962196E-03
       3.2932472E-02
       1.6654866E-01
       2.4457509E-01
       2.3816806E-01
       2.9145002E-01
       3.2148919E-01
       2.8898948E-01
       2.5186006E-01
       2.6197211E-01
       2.7954200E-01
       2.7753081E-01
       3.0607391E-01
       2.1979169E-01
       2.1250796E-01
       2.3293646E-01
       2.3634810E-01
       1.9689007E-01
       2.1539428E-01
       2.2526303E-01
       1.6958416E-01
       1.7338667E-01
       1.9381138E-01
       1.6551728E-01
       1.8902843E-01
       1.7615480E-01
       1.9250135E-01
       1.3133617E-02
       6.2425450E-02
       2.1029970E-01
       1.8712709E-01
       1.6771869E-01
       1.4896429E-01
       3.6212029E-01
       3.5033222E-01
       3.7104175E-01
       2.8400360E-01
       2.7663626E-01
       2.9811446E-01
       2.6944014E-01
       2.6070723E-01
       2.3600248E-01
       3.8847003E-01
       4.2957560E-01
       4.6398501E-01
       4.4629850E-01
       4.4977616E-01
       4.7365022E-01
       4.6933903E-01
       4.4885432E-01
       4.8967289E-01
       4.8496899E-01
       4.6275225E-01
       4.9453293E-01
       4.5525388E-01
       5.2221753E-01
       4.3266137E-01
       4.5347021E-01
       5.0245171E-01
       4.6963518E-01
       4.8688692E-01
       4.6422453E-01
       3.6128860E-01
       4.4055702E-01
       4.2550765E-01
       5.0481498E-01
       5.1942751E-01
       3.9302117E-01
       3.8064168E-01
       5.9697991E-01
       4.9496418E-01
       5.1054484E-01
       5.9059736E-01
       5.1084878E-01
       5.2668477E-01
       5.1863075E-01
       6.1534721E-01
       5.7621567E-01
       6.6182957E-01
       6.9707562E-01
       7.3832354E-01
       7.1363106E-01
       7.2090955E-01
       7.5542617E-01
       7.4340091E-01
       7.3085224E-01
       7.6733114E-01
       7.3209795E-01
       7.0616520E-01
       6.5187333E-01
       6.4978441E-01
       6.7955027E-01
       6.8572890E-01
       6.5220884E-01
       6.4072771E-01
       6.5932292E-01
       7.4204694E-01
       7.7088903E-01
       4.7907508E-03
       1.8077082E-03
       3.0790549E-03
       1.2311119E-03
       3.4032365E-02
       3.8499866E-02
       5.6229833E-02
       9.5355700E-02
       4.1988451E-02
       1.2228614E-01
       2.5330342E-01
       2.2241028E-01
       7.5262159E-02
       6.8162178E-02
       3.9833482E-01
       2.5075642E-01
       3.0942350E-01
       3.1948838E-01
       2.8860383E-01
       4.7870384E-01
       3.3778415E-02
       1.8123694E-02
       6.8645394E-02
       3.9209307E-03
       1.0628996E-01
       1.1176948E-01
       1.3093771E-02
       8.0270679E-02
       1.8684488E-02
       2.5075541E-02
       5.5692679E-03
       2.5966134E-03
       6.3791336E-02
       7.9268551E-02
       7.3049645E-02
       9.0270141E-02
       1.3348789E-01
       7.3358605E-03
       7.6271137E-03
       1.2184918E-01
       2.1933137E-01
       2.6920776E-01
       3.7022739E-01
       1.8683564E-01
       2.6396629E-01
       1.7680594E-01
       2.3736387E-01
       2.1216522E-01
       2.6540026E-01
       2.8884143E-01
       1.5569483E-01
       2.5153474E-01
       2.7340941E-01
       1.1253428E-01
       2.6306703E-01
       2.9615839E-01
       3.2289022E-01
       2.9385513E-01
       3.4934428E-01
       3.0049815E-01
       1.4044302E-01
       3.4022338E-01
       2.5894244E-01
       3.4302200E-01
       2.5186211E-01
       2.5198703E-01
       2.5976819E-01
       1.8687560E-01
       2.2630587E-01
       1.9317194E-01
       2.1098438E-01
       1.9650441E-01
       1.5525841E-01
       1.7149172E-01
       2.8682174E-01
       2.8177884E-01
       3.2788213E-01
       2.1230303E-01
       1.9377613E-01
       1.5052083E-01
       2.1029258E-01
       1.7245868E-01
       1.2148437E-01
       1.6782890E-01
       4.2020903E-02
       1.6002535E-01
       1.2475950E-01
       4.1636926E-01
       4.1927165E-01
       3.8295924E-01
       4.0408812E-01
       4.1610232E-01
       3.8731836E-01
       4.0445711E-01
       4.3664174E-01
       5.0683667E-01
       5.1061975E-01
       5.1016852E-01
       5.1901778E-01
       5.1509967E-01
       5.2831157E-01
       5.0817010E-01
       5.0612478E-01
       5.1972388E-01
       5.0693761E-01
       6.1881031E-01
       7.3030144E-01
       9.1861824E-01
       9.4851350E-01
       7.0906359E-01
       8.3213255E-01
       7.9520855E-01
       8.1473664E-01
       8.1244324E-01
       7.6838139E-01
       8.6554965E-01
       7.3472689E-01
       8.3377296E-01
       8.8758487E-01
       7.5431886E-01
       5.6507930E-01
       8.7025065E-01
       8.4477548E-01
       7.7505275E-01
       7.6895967E-01
       7.9067152E-01
       8.4701236E-01
       8.0696755E-01
       6.8422829E-01
       7.9266104E-01
       7.1475866E-01
       8.7019881E-01
       7.7171929E-01
       8.2884947E-01
       8.0905915E-01
       8.2206701E-01
       7.9235130E-01
       8.3643294E-01
       7.8666898E-01
       8.2474800E-01
       7.9427006E-01
       7.2550150E-01
       8.0780868E-01
       8.4748396E-01
       7.5099370E-01
       7.7790341E-01
       1.0637529E+00
       8.8666602E-01
       8.4279040E-01
       9.0338246E-01
       8.1038062E-01
       8.7333865E-01
       6.9481414E-01
       6.9901478E-01
       8.8285817E-01
       8.9514840E-01
       8.9702292E-01
       9.3564945E-01
       8.7516668E-01
       8.6006201E-01
       8.1832053E-01
       6.8541167E-01
       7.6993664E-01
       7.3432249E-01
       7.4690787E-01
       8.1149457E-01
       8.1475240E-01
       7.4788970E-01
       7.2228150E-01
       6.0914845E-01
       7.9071041E-01
       9.7770601E-01
       7.8874026E-01
       8.5059373E-01
       6.4609484E-01
       8.5324797E-01
       6.6668540E-01
       6.6941687E-01
       6.5892142E-01
       6.2469402E-01
       6.3073337E-01
       5.9735767E-01
       6.2660466E-01
       6.0329496E-01
       5.8039305E-01
       5.8029840E-01
       5.8920233E-01
       5.6781172E-01
       5.9425369E-01
       5.5613279E-01
       5.7038106E-01
       5.7428432E-01
       5.5461244E-01
       5.6485821E-01
       5.4539949E-01
       5.2956210E-01
       5.2331735E-01
       5.3873644E-01
       5.5300148E-01
       5.5038684E-01
       5.1144220E-01
       5.4068334E-01
       6.4097971E-01
       6.7613553E-01
       6.3291572E-01
       6.6800166E-01
       7.4434106E-01
       7.5274791E-01
       7.4125129E-01
       7.5376293E-01
       7.4192755E-01
       7.2332569E-01
       7.6026040E-01
       7.3607514E-01
       7.9699499E-01
       7.4369307E-01
       7.8761116E-01
       7.7351955E-01
       8.1062137E-01
       7.5924427E-01
       7.8284687E-01
       7.6984382E-01
       7.4777347E-01
       7.9342306E-01
       7.5925063E-01
       7.8162051E-01
       7.6874078E-01
       7.8240244E-01