# vtk DataFile Version 3.0
# Solution du M1 TR
ASCII
DATASET UNSTRUCTURED_GRID
POINTS   3280  float
0.0000000E+00  0.0000000E+00  0.1978333E+01
0.2000000E+01  0.0000000E+00  0.1000000E+00
0.2000000E+01  0.1000000E+01  0.1000000E+00
0.0000000E+00  0.1000000E+01  0.1975838E+01
0.1000000E+01  0.0000000E+00  0.5324215E+00
0.1000000E+01  0.1000000E+01  0.5098610E+00
0.1500000E+01  0.5000000E+00  0.1600211E+01
0.1500000E+01  0.0000000E+00  0.1001852E+00
0.1723284E+01  0.3570951E+00  0.1000000E+00
0.1500000E+01  0.2500000E+00  0.1007403E+00
0.1515103E+01  0.2763186E+00  0.1004871E+00
0.1594866E+01  0.2826386E+00  0.1000184E+00
0.1562500E+01  0.1875000E+00  0.1000601E+00
0.1534357E+01  0.1819434E+00  0.1001617E+00
0.1561083E+01  0.3343258E+00  0.4308428E+00
0.1750000E+01  0.0000000E+00  0.1000000E+00
0.1503267E+01  0.1622339E+00  0.1005073E+00
0.1514910E+01  0.2261192E+00  0.1003622E+00
0.1610795E+01  0.1290247E+00  0.1000028E+00
0.1539062E+01  0.1536458E+00  0.1000793E+00
0.1510772E+01  0.1982718E+00  0.1003852E+00
0.1541862E+01  0.2179813E+00  0.1001290E+00
0.1475030E+01  0.2178147E+00  0.1016830E+00
0.1539206E+01  0.2578835E+00  0.1001452E+00
0.1521085E+01  0.2465697E+00  0.1002884E+00
0.1496499E+01  0.2146241E+00  0.1007570E+00
0.1481433E+01  0.1870688E+00  0.1011516E+00
0.1586261E+01  0.1960616E+00  0.1000172E+00
0.1460896E+01  0.2899333E+00  0.1029154E+00
0.1542195E+01  0.2867649E+00  0.1001730E+00
0.1486080E+01  0.2754813E+00  0.1011645E+00
0.1536278E+01  0.3247610E+00  0.3992743E+00
0.1510131E+01  0.3295675E+00  0.5074914E+00
0.1455545E+01  0.2514402E+00  0.1030166E+00
0.1610995E+01  0.1909452E+00  0.1000044E+00
0.1564462E+01  0.2395252E+00  0.1000543E+00
0.1571524E+01  0.3026484E+00  0.1000498E+00
0.1613657E+01  0.2555806E+00  0.1000069E+00
0.1633998E+01  0.2714643E+00  0.1000025E+00
0.1534973E+01  0.3650914E+00  0.8716708E+00
0.1583157E+01  0.2286349E+00  0.1000213E+00
0.1586501E+01  0.1581416E+00  0.1000138E+00
0.1651985E+01  0.2274641E+00  0.1000007E+00
0.1619170E+01  0.2936434E+00  0.1000052E+00
0.1678889E+01  0.2641389E+00  0.1000002E+00
0.1642286E+01  0.2930521E+00  0.1000015E+00
0.1526415E+01  0.3446283E+00  0.6687592E+00
0.1662420E+01  0.3044259E+00  0.1000004E+00
0.1636786E+01  0.2469276E+00  0.1000023E+00
0.1588953E+01  0.3366240E+00  0.3023515E+00
0.1616427E+01  0.3314099E+00  0.1000039E+00
0.1598305E+01  0.3102698E+00  0.1000133E+00
0.1655410E+01  0.2614708E+00  0.1000007E+00
0.1487553E+01  0.3072167E+00  0.2018318E+00
0.1520126E+01  0.3036443E+00  0.1394100E+00
0.1477894E+01  0.2544664E+00  0.1015423E+00
0.1567847E+01  0.2133479E+00  0.1000443E+00
0.1663947E+01  0.3299725E+00  0.1000003E+00
0.1567022E+01  0.2696000E+00  0.1000566E+00
0.1678598E+01  0.3509559E+00  0.1000000E+00
0.1611933E+01  0.3827205E+00  0.6143697E+00
0.1640491E+01  0.3197373E+00  0.1000014E+00
0.1588015E+01  0.2526666E+00  0.1000204E+00
0.1708471E+01  0.3144917E+00  0.1000000E+00
0.1606944E+01  0.3564315E+00  0.3981687E+00
0.1604614E+01  0.2314093E+00  0.1000072E+00
0.1643491E+01  0.3631133E+00  0.1252150E+00
0.2000000E+01  0.5000000E+00  0.1000000E+00
0.1494727E+01  0.3621796E+00  0.8873039E+00
0.1701807E+01  0.3477237E+00  0.1000000E+00
0.1572156E+01  0.3701847E+00  0.7728175E+00
0.1688392E+01  0.3285111E+00  0.1000001E+00
0.1695932E+01  0.3904821E+00  0.1000000E+00
0.1636337E+01  0.3418163E+00  0.1000008E+00
0.1505941E+01  0.9448485E-01  0.1003310E+00
0.1423727E+01  0.1910920E+00  0.1067393E+00
0.1481447E+01  0.3359634E+00  0.5797575E+00
0.1441613E+01  0.3726133E+00  0.8680685E+00
0.1466699E+01  0.3599060E+00  0.8245265E+00
0.1476682E+01  0.4107296E+00  0.1281534E+01
0.1434448E+01  0.3273535E+00  0.3301401E+00
0.1464523E+01  0.3867258E+00  0.1073443E+01
0.1456903E+01  0.3373583E+00  0.5427266E+00
0.1454188E+01  0.3132491E+00  0.2175419E+00
0.1424069E+01  0.2919612E+00  0.1080182E+00
0.1490969E+01  0.3884111E+00  0.1130558E+01
0.1428051E+01  0.4202828E+00  0.1174047E+01
0.1513790E+01  0.3782958E+00  0.1037617E+01
0.1547789E+01  0.4092466E+00  0.1205515E+01
0.1535154E+01  0.3889763E+00  0.1091471E+01
0.1512699E+01  0.4170463E+00  0.1336081E+01
0.1441554E+01  0.3983607E+00  0.1088972E+01
0.1395941E+01  0.3853832E+00  0.7230460E+00
0.1420578E+01  0.3854393E+00  0.8817250E+00
0.1408336E+01  0.3518173E+00  0.4779073E+00
0.1549967E+01  0.3074339E+00  0.1159545E+00
0.1651639E+01  0.4114272E+00  0.4435190E+00
0.1668616E+01  0.3788978E+00  0.1000000E+00
0.1674624E+01  0.4027285E+00  0.1016705E+00
0.1706988E+01  0.4343785E+00  0.1000000E+00
0.1673984E+01  0.4357547E+00  0.3100769E+00
0.1695270E+01  0.4139894E+00  0.1000000E+00
0.1737273E+01  0.4034108E+00  0.1000000E+00
0.1645630E+01  0.3875965E+00  0.3309007E+00
0.1625874E+01  0.4052508E+00  0.6691853E+00
0.1627808E+01  0.4540126E+00  0.9081401E+00
0.1587158E+01  0.4136289E+00  0.1035382E+01
0.1633718E+01  0.4293591E+00  0.7423555E+00
0.1651607E+01  0.4466828E+00  0.6314699E+00
0.1605650E+01  0.4356658E+00  0.1026220E+01
0.1682168E+01  0.4808869E+00  0.3418536E+00
0.1671711E+01  0.4594749E+00  0.4327346E+00
0.1698428E+01  0.4596870E+00  0.1000000E+00
0.1646221E+01  0.4851828E+00  0.7899930E+00
0.1607747E+01  0.4151289E+00  0.8945285E+00
0.1584205E+01  0.4841185E+00  0.1324651E+01
0.1747573E+01  0.4622079E+00  0.1000000E+00
0.1568396E+01  0.4481495E+00  0.1323758E+01
0.1601760E+01  0.4629165E+00  0.1160111E+01
0.1723356E+01  0.4540167E+00  0.1000000E+00
0.1732897E+01  0.4294241E+00  0.1000000E+00
0.1722218E+01  0.4972746E+00  0.1000000E+00
0.1715121E+01  0.4754441E+00  0.1000000E+00
0.1584567E+01  0.4345797E+00  0.1171321E+01
0.1563465E+01  0.4258523E+00  0.1242794E+01
0.1534166E+01  0.4440258E+00  0.1438761E+01
0.1615090E+01  0.4918227E+00  0.1100779E+01
0.1717469E+01  0.4134541E+00  0.1000000E+00
0.1718488E+01  0.3909170E+00  0.1000000E+00
0.1741353E+01  0.3769080E+00  0.1000000E+00
0.1781199E+01  0.4241746E+00  0.1000000E+00
0.2000000E+01  0.2500000E+00  0.1000000E+00
0.1756308E+01  0.4199875E+00  0.1000000E+00
0.1762447E+01  0.3937207E+00  0.1000000E+00
0.1765097E+01  0.4438197E+00  0.1000000E+00
0.1807974E+01  0.4625425E+00  0.1000000E+00
0.1789176E+01  0.4471344E+00  0.1000000E+00
0.1514158E+01  0.1287364E+00  0.1002273E+00
0.1777674E+01  0.4803377E+00  0.1000000E+00
0.1811145E+01  0.4395021E+00  0.1000000E+00
0.1850404E+01  0.4566449E+00  0.1000000E+00
0.1748483E+01  0.3522599E+00  0.1000000E+00
0.1731235E+01  0.3304535E+00  0.1000000E+00
0.1777870E+01  0.3654441E+00  0.1000000E+00
0.1748149E+01  0.2821176E+00  0.1000000E+00
0.1732875E+01  0.3039003E+00  0.1000000E+00
0.1708314E+01  0.2807181E+00  0.1000000E+00
0.1767650E+01  0.3193756E+00  0.1000000E+00
0.1372661E+01  0.1704076E+00  0.1245869E+00
0.1411157E+01  0.2494459E+00  0.1121538E+00
0.1448000E+01  0.2246098E+00  0.1042093E+00
0.1360382E+01  0.2278583E+00  0.1328339E+00
0.1433680E+01  0.2431125E+00  0.1065251E+00
0.1388814E+01  0.2314916E+00  0.1187810E+00
0.1314549E+01  0.2124991E+00  0.1760539E+00
0.1404157E+01  0.2007613E+00  0.1137037E+00
0.1415035E+01  0.1072182E+00  0.1070227E+00
0.1520299E+01  0.1091515E+00  0.1001595E+00
0.1459010E+01  0.1690672E+00  0.1025984E+00
0.1436337E+01  0.2690050E+00  0.1052903E+00
0.1443480E+01  0.1263360E+00  0.1037550E+00
0.1625000E+01  0.0000000E+00  0.1000011E+00
0.1414954E+01  0.2197329E+00  0.1093235E+00
0.1335299E+01  0.2266424E+00  0.1531450E+00
0.1396801E+01  0.1612344E+00  0.1125695E+00
0.1792033E+01  0.3934232E+00  0.1000000E+00
0.1541310E+01  0.1264947E+00  0.1000739E+00
0.1483859E+01  0.1256971E+00  0.1008469E+00
0.1500341E+01  0.1139400E+00  0.1004180E+00
0.1498380E+01  0.1421255E+00  0.1005155E+00
0.1478242E+01  0.1468909E+00  0.1012164E+00
0.1453147E+01  0.1972183E+00  0.1028593E+00
0.1348833E+01  0.2067866E+00  0.1401415E+00
0.1368157E+01  0.2800764E+00  0.1316647E+00
0.1250000E+01  0.0000000E+00  0.1883204E+00
0.1496272E+01  0.2780308E-01  0.1002852E+00
0.1430228E+01  0.1622338E+00  0.1051709E+00
0.1544491E+01  0.1012427E+00  0.1000488E+00
0.1505524E+01  0.5428530E-01  0.1002710E+00
0.1576405E+01  0.1180891E+00  0.1000204E+00
0.1526885E+01  0.8834234E-01  0.1001230E+00
0.1558557E+01  0.6358195E-01  0.1000339E+00
0.1372206E+01  0.9428859E-01  0.1180847E+00
0.1414069E+01  0.8636887E-01  0.1075549E+00
0.1351230E+01  0.1581055E+00  0.1376197E+00
0.1371634E+01  0.2528708E+00  0.1306131E+00
0.1392978E+01  0.2694234E+00  0.1196231E+00
0.1321668E+01  0.2603105E+00  0.1727238E+00
0.1392566E+01  0.3027057E+00  0.1216250E+00
0.1345601E+01  0.2495441E+00  0.1481166E+00
0.1349996E+01  0.1827855E+00  0.1389222E+00
0.1475238E+01  0.9618066E-01  0.1008737E+00
0.1487372E+01  0.4556180E+00  0.1520669E+01
0.1432024E+01  0.3509343E+00  0.6009963E+00
0.1619231E+01  0.5383449E+00  0.1011762E+01
0.1532505E+01  0.4233173E+00  0.1339917E+01
0.1547332E+01  0.4788657E+00  0.1499248E+01
0.1627786E+01  0.4750493E+00  0.9643065E+00
0.1750658E+01  0.4911384E+00  0.1000000E+00
0.1783313E+01  0.5336292E+00  0.1000000E+00
0.1744147E+01  0.5299352E+00  0.1000000E+00
0.1772978E+01  0.5077787E+00  0.1000000E+00
0.1739682E+01  0.5092411E+00  0.1000000E+00
0.1715917E+01  0.5251974E+00  0.1000000E+00
0.1809547E+01  0.4999146E+00  0.1000000E+00
0.1486188E+01  0.5335558E+00  0.1551019E+01
0.1695320E+01  0.5058771E+00  0.1680790E+00
0.1793562E+01  0.5145404E+00  0.1000000E+00
0.1827482E+01  0.5355643E+00  0.1000000E+00
0.1805457E+01  0.5332234E+00  0.1000000E+00
0.1812320E+01  0.5734372E+00  0.1000000E+00
0.1794794E+01  0.5557356E+00  0.1000000E+00
0.1637325E+01  0.5533192E+00  0.7862073E+00
0.1761146E+01  0.5591762E+00  0.1000000E+00
0.1789115E+01  0.5788851E+00  0.1000000E+00
0.1693317E+01  0.6123782E+00  0.1000000E+00
0.1522396E+01  0.5359490E+00  0.1532786E+01
0.1814654E+01  0.6254783E+00  0.1000000E+00
0.1726166E+01  0.5505978E+00  0.1000000E+00
0.1691322E+01  0.5307786E+00  0.1918271E+00
0.1516987E+01  0.5143680E+00  0.1581515E+01
0.1661909E+01  0.5147686E+00  0.6087765E+00
0.1761865E+01  0.6508066E+00  0.1000000E+00
0.1692174E+01  0.5698207E+00  0.1000000E+00
0.1780214E+01  0.6037461E+00  0.1000000E+00
[...]
POINT_DATA    3280
SCALARS hauteur float
LOOKUP_TABLE DEFAULT
       1.8783334E+00
       9.9999999E-09
       9.9999999E-09
       1.8758379E+00
       4.3242145E-01
       4.0986100E-01
       2.1147168E-04
       1.8519899E-04
       9.9999999E-09
       7.4033121E-04
       4.8709581E-04
       1.8427925E-05
       6.0114207E-05
       1.6165244E-04
       5.8826169E-05
       9.9999999E-09
       5.0731843E-04
       3.6218807E-04
       2.7508431E-06
       7.9344528E-05
       3.8517443E-04
       1.2901869E-04
       1.6829754E-03
       1.4519792E-04
       2.8839769E-04
       7.5697206E-04
       1.1515591E-03
       1.7210334E-05
       2.9153825E-03
       1.7304433E-04
       1.1644545E-03
       2.0380773E-04
       6.1125797E-04
       3.0165577E-03
       4.3671602E-06
       5.4290269E-05
       4.9783590E-05
       6.9015977E-06
       2.4527259E-06
       5.1139117E-05
       2.1309821E-05
       1.3751064E-05
       6.9106451E-07
       5.1553787E-06
       1.6503619E-07
       1.4521536E-06
       1.8817484E-04
       3.9579370E-07
       2.2634545E-06
       1.3056726E-05
       3.9412081E-06
       1.3271098E-05
       6.9979472E-07
       1.3434281E-03
       4.3319407E-04
       1.5423443E-03
       4.4349895E-05
       2.6675010E-07
       5.6630782E-05
       3.7448840E-08
       3.2814517E-07
       1.4208840E-06
       2.0376831E-05
       2.4382072E-08
       1.9138080E-06
       7.1678882E-06
       1.7422543E-07
       9.9999999E-09
       6.3892916E-04
       1.2181971E-08
       9.5859242E-06
       8.1850772E-08
       9.9999999E-09
       7.9697657E-07
       3.3100645E-04
       6.7393078E-03
       1.7159300E-03
       4.4335556E-03
       2.1006230E-03
       7.6811201E-04
       9.0368659E-03
       1.8049384E-03
       4.3385673E-03
       4.0896646E-03
       8.0181598E-03
       5.7010541E-04
       6.4798715E-03
       1.9449599E-04
       1.4330537E-05
       4.8911968E-05
       1.7721478E-04
       4.4625447E-03
       2.1746358E-02
       1.0427178E-02
       1.6425344E-02
       1.4247742E-04
       2.2098845E-08
       2.0110736E-08
       9.9999999E-09
       9.9999999E-09
       9.9999999E-09
       9.9999999E-09
       9.9999999E-09
       4.6709104E-08
       1.0515732E-07
       7.9814790E-08
       1.8138036E-06
       7.4601641E-08
       1.9384027E-08
       2.8004138E-07
       9.9999999E-09
       9.9999999E-09
       9.9999999E-09
       2.2690593E-08
       4.4092880E-07
       6.8468049E-07
       9.9999999E-09
       1.8634926E-06
       3.4322815E-07
       9.9999999E-09
       9.9999999E-09
       9.9999999E-09
       9.9999999E-09
       1.1483984E-06
       7.2546920E-06
       2.6868274E-05
       1.6252996E-07
       9.9999999E-09
       9.9999999E-09
       9.9999999E-09
       9.9999999E-09
       9.9999999E-09
       9.9999999E-09
       9.9999999E-09
       9.9999999E-09
       9.9999999E-09
       9.9999999E-09
       2.2727797E-04
       9.9999999E-09
       9.9999999E-09
       9.9999999E-09
       9.9999999E-09
       9.9999999E-09
       9.9999999E-09
       9.9999999E-09
       9.9999999E-09
       3.4418499E-08
       9.9999999E-09
       2.4586927E-02
       1.2153802E-02
       4.2093055E-03
       3.2833938E-02
       6.5251127E-03
       1.8781020E-02
       7.6053902E-02
       1.3703677E-02
       7.0227273E-03
       1.5947491E-04
       2.5983775E-03
       5.2903329E-03
       3.7549890E-03
       1.0637435E-06
       9.3234574E-03
       5.3144971E-02
       1.2569529E-02
       9.9999999E-09
       7.3942587E-05
       8.4690737E-04
       4.1799010E-04
       5.1553696E-04
       1.2164297E-03
       2.8592755E-03
       4.0141506E-02
       3.1664692E-02
       8.8320393E-02
       2.8517673E-04
       5.1708896E-03
       4.8812077E-05
       2.7096332E-04
       2.0352513E-05
       1.2298004E-04
       3.3937129E-05
       1.8084696E-02
       7.5549437E-03
       3.7619702E-02
       3.0613077E-02
       1.9623053E-02
       7.2723786E-02
       2.1625040E-02
       4.8116576E-02
       3.8922171E-02
       8.7372809E-04
       5.1476729E-04
       7.5447173E-03
       2.0883024E-07
       4.6393684E-05
       1.0002847E-05
       6.1998782E-08
       9.9999999E-09
       9.9999999E-09
       9.9999999E-09
       9.9999999E-09
       9.9999999E-09
       9.9999999E-09
       9.9999999E-09
       3.9810825E-04
       9.9999999E-09
       9.9999999E-09
       9.9999999E-09
       9.9999999E-09
       9.9999999E-09
       9.9999999E-09
       6.0694880E-08
       9.9999999E-09
       9.9999999E-09
       1.0815280E-08
       5.7978537E-05
       9.9999999E-09
       9.9999999E-09
       9.9999999E-09
       7.7362670E-05
       1.0282676E-08
       9.9999999E-09
       9.9999999E-09
       9.9999999E-09
       3.3005394E-06
       1.0243946E-08
       9.9999999E-09
       1.0351828E-06
       3.5360680E-07
       9.9999999E-09
       9.9999999E-09
       2.4787776E-08
       3.1471014E-08
       9.9999999E-09
       9.9999999E-09
       9.9999999E-09
       9.9999999E-09
       9.9999999E-09
       9.9999999E-09
       9.9999999E-09
       9.6904987E-08
       1.3545790E-08
       9.9999999E-09
       9.9999999E-09
       9.9999999E-09
       9.9999999E-09
       9.9999999E-09
       9.9999999E-09
       9.9999999E-09
       2.1495224E-04
       2.4099221E-02
       8.5884118E-06
       2.7008994E-05
       4.1325043E-05
       2.2475647E-02
       2.9634505E-06
       1.6564740E-05
       1.0290736E-05
       1.5170108E-05
       1.3849717E-06
       1.0872465E-05
       6.1508649E-06
       1.4604048E-06
       1.4016327E-07
       3.0968755E-07
       6.1551411E-07
       6.7280932E-07
       1.2499663E-06
       4.5190681E-08
       2.9690651E-07
       1.2945335E-06
       1.3201911E-06
       5.0621560E-06
       6.1309431E-04
       1.7436395E-03
       4.0382603E-02
       2.4891660E-03
       8.0546627E-02
       5.6709354E-02
       8.0130881E-02
       1.5223079E-02
       3.8232038E-03
       9.0028421E-03
       7.0102118E-03
       1.5934767E-03
       1.2441671E-02
       6.9903819E-04
       1.4624805E-02
       1.4956482E-02
       2.5623916E-02
       3.0989328E-02
       4.2488354E-02
       4.6607986E-04
       1.3453294E-04
       1.8143354E-03
       3.6312865E-05
       4.5002496E-05
       1.2031825E-06
       1.3738446E-05
       4.2445514E-08
       8.2602686E-06
       2.1911017E-06
       9.9999999E-09
       9.9999999E-09
       9.9999999E-09
       9.9999999E-09
       9.9999999E-09
       9.9999999E-09
       9.9999999E-09
       5.4226973E-08
       1.1194413E-06
       9.9999999E-09
       1.7521014E-08
       9.9999999E-09
       9.9999999E-09
       9.9999999E-09
       9.9999999E-09
       9.9999999E-09
       9.9999999E-09
       9.9999999E-09
       9.9999999E-09
       9.9999999E-09
       9.9999999E-09
       9.9999999E-09
       9.9999999E-09
       2.3982005E-07
       9.9999999E-09
       9.9999999E-09
       9.9999999E-09
       9.9999999E-09
       9.9475240E-08
       9.9999999E-09
       1.7879448E-04
       2.7213061E-07
       9.9999999E-09
       2.1501352E-08
       6.5833069E-06
       9.9999999E-09
       9.9999999E-09
       1.1014642E-07
       1.1735270E-07
       8.2427431E-08
       5.6811217E-08
       9.9999999E-09
       6.2037511E-07
       1.6426990E-07
       5.0529761E-07
       2.2777569E-06
       1.3617693E-07
       9.9999999E-09
       3.2986780E-08
       4.1866732E-08
       9.9999999E-09
       9.9999999E-09
       9.9999999E-09
       9.9999999E-09
       4.2600926E-06
       4.5148187E-05
       4.2783834E-06
       8.8501289E-07
       2.0262529E-07
       1.7525825E-07
       9.0621906E-07
       3.4008005E-03
       1.9836735E-03
       1.3889122E-02
       9.5849129E-03
       1.5864710E-03
       4.0735321E-03
       3.9412122E-03
       4.9483521E-04
       5.2562026E-05
       1.3289541E-04
       8.6915537E-05
       1.0448656E-02
       6.4644505E-02
       3.2784676E-02
       4.9164538E-02
       7.1303675E-02
       5.0635481E-02
       7.3064376E-02
       1.2734480E-01
       9.7920204E-02
       1.3250975E-01
       1.0198932E-01
       1.2167939E-01
       1.8460720E-01
       1.5137657E-01
       1.7360722E-01
       1.5851633E-01
       1.3841416E-01
       9.1658310E-02
       6.7350822E-02
       1.3942773E-01
       1.0489855E-01
       1.2359713E-01
       1.8074973E-01
       1.5611106E-01
       1.0676181E-01
       1.3548255E-01
       8.1705591E-02
       5.8603812E-02
       1.0304455E-01
       3.9298077E-02
       6.9566761E-02
       5.7729801E-02
       5.0667342E-02
       4.3214339E-02
       6.6029692E-02
       1.1096604E-01
       8.8983786E-02
       2.8599603E-02
       8.7827784E-02
       1.0393050E-01
       1.1957703E-01
       9.1476055E-02
       4.2772841E-02
       5.2791726E-02
       1.7746168E-01
       1.0406146E-01
       1.8398512E-01
       1.4267177E-01
       1.5296203E-01
       1.7316297E-01
       2.3312172E-01
       2.0948531E-01
       2.2060532E-01
       1.3324262E-01
       1.7145501E-01
       2.3218470E-01
       2.0500948E-01
       2.3337114E-01
       1.3787311E-01
       2.9111290E-01
       1.2635081E-01
       2.6402647E-01
       7.7707904E-02
       1.8188089E-01
       2.5927647E-01
       2.7457054E-01
       2.8114142E-01
       3.2984835E-01
       3.1219281E-01
       3.2307333E-01
       2.7471612E-01
       1.0848483E-01
       1.5513293E-01
       3.0013375E-01
       2.9821968E-01
       3.0845354E-01
       3.6367777E-01
       3.4621784E-01
       2.9831739E-01
       3.6257621E-01
       9.2076336E-02
       1.2609402E-01
       3.3007448E-01
       3.1350069E-01
       3.2594597E-01
       3.4347890E-01
       3.6168027E-01
       4.9568154E-02
       1.2711084E-01
       3.9447531E-01
       1.0184075E-01
       1.7990855E-01
       3.7368401E-01
       3.9840336E-01
       4.2763791E-02
       1.5793805E-01
       1.9135512E-01
       3.8145058E-01
       4.2733897E-01
       4.1383644E-01
       4.5469740E-01
       4.5137321E-01
       6.9436414E-02
       4.4220562E-02
       8.0985591E-02
       1.4581418E-02
       8.5741150E-02
       2.8336628E-02
       3.4857972E-02
       2.1672814E-02
       4.2588857E-01
       5.1562893E-01
       1.5237855E-02
       4.2966411E-01
       4.3425695E-01
       4.8252766E-01
       4.8293890E-01
       5.4423768E-03
       1.9950299E-02
       9.9653398E-03
       1.9012143E-03
       5.5748876E-03
       5.3295774E-03
       4.2177271E-01
       3.8922607E-01
       4.5441323E-01
       4.5602123E-01
       1.8992273E-03
       5.3673612E-04
       3.7222798E-01
       5.0597121E-01
       4.9066140E-01
       4.2185417E-01
       9.3541254E-04
       5.5632026E-01
       4.2361306E-01
       3.9005454E-01
       3.3700581E-03
       5.1720788E-01
       5.3403964E-01
       5.3651119E-01
       5.7718794E-01
       5.0584157E-01
       5.7617788E-01
       5.4934046E-01
       5.3933487E-01
       5.3976466E-01
       5.2923421E-01
       4.9149376E-01
       4.7901023E-01
       5.8943243E-01
       5.6862223E-01
       6.1265720E-01
       5.5889551E-01
       5.7392678E-01
       2.4231460E-03
       9.9999999E-09
       9.9999999E-09
       9.9999999E-09
       9.9999999E-09
       9.9999999E-09
       9.9999999E-09
       9.9999999E-09
       9.9999999E-09
       9.9999999E-09
       9.9999999E-09
       9.9999999E-09
       9.9999999E-09
       9.9999999E-09
       9.9999999E-09
       9.9999999E-09
       9.9999999E-09
       9.9999999E-09
       9.9999999E-09
       9.9999999E-09
       9.9999999E-09
       9.9999999E-09
       9.9999999E-09
       9.9999999E-09
       9.9999999E-09
       9.9999999E-09
       3.4518211E-04
       2.0155170E-08
       9.9999999E-09
       1.1017767E-07
       6.5200354E-08
       4.7705132E-08
       4.3117467E-07
       2.0779829E-05
       2.6762909E-06
       3.0277162E-05
       5.1320236E-05
       6.2496049E-06
       1.4024690E-05
       2.1317514E-06
       2.4466652E-05
       9.6709628E-05
       1.6334175E-04
       1.9530753E-04
       5.8974371E-04
       4.3967420E-04
       1.2800629E-04
       1.6279698E-05
       4.9697080E-05
       8.2433568E-05
       8.8899657E-05
       7.6752967E-04
       2.5880780E-04
       1.7155513E-04
       3.7961800E-04
       1.6071504E-04
       4.6766159E-04
       2.2357882E-05
       4.5793894E-04
       8.4645952E-05
       1.4161433E-03
       1.9083852E-04
       8.5306512E-04
       1.9659930E-03
       3.3187281E-04
       2.7770244E-04
       9.8024470E-04
       1.1555064E-03
       7.6814306E-03
       3.5475291E-03
       2.2505869E-03
       7.1431346E-03
       3.7180024E-03
       1.0296736E-02
       5.5090943E-03
       2.9964821E-03
       4.7004959E-03
       2.9161768E-03
       4.7345580E-03
       1.4418672E-03
       4.2039463E-03
       1.8077074E-02
       9.4145036E-03
       1.3153614E-02
       9.9999999E-09
       9.9999999E-09
       9.9999999E-09
       9.9999999E-09
       9.9999999E-09
       9.9999999E-09
       9.9999999E-09
       9.9999999E-09
       9.9999999E-09
       9.9999999E-09
       1.1465050E-08
       2.1168422E-06
       9.9999999E-09
       9.9999999E-09
       1.8509927E-07
       2.4524487E-07
       5.9952325E-08
       9.9999999E-09
       1.2603281E-08
       4.1810489E-08
       1.0967461E-07
       3.7174288E-07
       2.7636836E-08
       9.9999999E-09
       9.9999999E-09
       9.9999999E-09
       9.9999999E-09
       9.9999999E-09
       9.9999999E-09
       9.9999999E-09
       9.9999999E-09
       9.9999999E-09
       9.9999999E-09
       9.9999999E-09
       9.9999999E-09
       9.9999999E-09
       9.9999999E-09
       9.9999999E-09
       2.5891083E-05
       3.8526047E-06
       3.6792658E-07
       8.2816410E-08
       2.1025083E-06
       2.8657143E-02
       5.0852170E-02
       1.8617269E-03
       1.6385800E-03
       4.1595581E-03
       8.8593453E-04
       6.1642563E-04
       1.0762610E-04
       5.8445523E-02
       1.3190301E-01
       1.8986017E-01
       1.6175148E-01
       1.6488049E-01
       2.1136747E-01
       1.9515807E-01
       1.6941498E-01
       2.2713222E-01
       2.2375020E-01
       1.9100771E-01
       2.4245775E-01
       1.7469748E-01
       2.8330343E-01
       1.4148071E-01
       1.7712139E-01
       2.4845895E-01
       2.0176254E-01
       2.1890152E-01
       1.8656216E-01
       3.3339051E-02
       1.4569400E-01
       1.1995158E-01
       2.5542717E-01
       2.7535457E-01
       7.5506646E-02
       5.9877274E-02
       8.1141659E-02
       2.0836761E-01
       2.4510902E-01
       6.6634355E-02
       1.6522297E-01
       2.5543961E-01
       2.3545164E-01
       4.0400783E-01
       3.4255985E-01
       4.7765076E-01
       5.4284631E-01
       6.1323415E-01
       5.7346255E-01
       5.8178893E-01
       6.3574632E-01
       6.1837830E-01
       5.9521627E-01
       6.6101090E-01
       6.1716134E-01
       5.6559268E-01
       4.8085854E-01
       4.6859231E-01
       5.0595403E-01
       5.1798472E-01
       4.6176619E-01
       4.4500639E-01
       4.7623359E-01
       6.0866871E-01
       6.5623988E-01
       9.9999999E-09
       9.9999999E-09
       9.9999999E-09
       9.9999999E-09
       2.6225765E-07
       6.1274243E-07
       3.3605225E-07
       1.7666441E-06
       5.0477715E-07
       1.7897253E-04
       2.6392150E-03
       1.9571174E-03
       3.3455337E-06
       1.3296042E-06
       7.5119435E-06
       4.6422561E-04
       4.0428467E-04
       1.9226711E-03
       2.6954669E-03
       2.4665855E-02
       9.9999999E-09
       9.9999999E-09
       9.9999999E-09
       9.9999999E-09
       9.9999999E-09
       9.9999999E-09
       9.9999999E-09
       9.9999999E-09
       9.9999999E-09
       9.9999999E-09
       9.9999999E-09
       9.9999999E-09
       9.9999999E-09
       9.9999999E-09
       9.9999999E-09
       9.9999999E-09
       9.9999999E-09
       9.9999999E-09
       9.9999999E-09
       4.5651043E-07
       1.3733359E-06
       5.6976890E-06
       9.2738851E-06
       7.9854714E-06
       3.1972254E-05
       2.5513359E-05
       9.9999999E-09
       9.9999999E-09
       3.6966638E-08
       1.2217484E-07
       9.9999999E-09
       9.9999999E-09
       1.5625846E-08
       9.9999999E-09
       9.9999999E-09
       6.0070317E-08
       2.6745738E-07
       1.5417178E-06
       8.6096497E-07
       4.9091150E-07
       3.3183875E-08
       2.3835159E-06
       4.0993296E-07
       9.6878790E-07
       1.1309856E-07
       1.2456815E-06
       3.2800556E-08
       9.9999999E-09
       9.9999999E-09
       9.9999999E-09
       2.6677777E-08
       9.9999999E-09
       9.9999999E-09
       7.2306673E-07
       1.5821118E-05
       4.7429303E-06
       1.1646385E-05
       9.9999999E-09
       9.9999999E-09
       9.9999999E-09
       9.9999999E-09
       9.9999999E-09
       9.9999999E-09
       1.0958150E-08
       9.9999999E-09
       2.8719052E-07
       9.9999999E-09
       1.1123916E-01
       1.1496215E-01
       5.9847931E-02
       9.1582585E-02
       1.0061613E-01
       7.0967168E-02
       9.2814309E-02
       1.4605850E-01
       2.4968674E-01
       2.1473902E-01
       2.2454448E-01
       2.3528427E-01
       2.3193295E-01
       2.6309478E-01
       2.0463125E-01
       2.0803301E-01
       2.4059684E-01
       2.1641257E-01
       4.0763088E-01
       6.0436837E-01
       9.2274777E-01
       1.0239867E+00
       5.7588332E-01
       7.7514574E-01
       7.1047729E-01
       7.4215419E-01
       7.4353541E-01
       6.7075628E-01
       8.3157804E-01
       6.3728013E-01
       7.7263266E-01
       8.6793768E-01
       6.5894906E-01
       3.4873826E-01
       8.3272833E-01
       7.8568997E-01
       6.6917371E-01
       6.5555299E-01
       6.9429187E-01
       8.4093363E-01
       7.1751156E-01
       5.2909048E-01
       6.9428972E-01
       5.9207104E-01
       8.3664298E-01
       6.5796547E-01
       7.5952811E-01
       7.2437982E-01
       7.4442411E-01
       7.0122299E-01
       7.6808191E-01
       7.0542795E-01
       7.4777479E-01
       7.2349747E-01
       6.0105907E-01
       7.1869244E-01
       7.8873883E-01
       6.3790186E-01
       6.9970098E-01
       1.2829476E+00
       8.6166683E-01
       8.3651983E-01
       8.9111575E-01
       7.4687013E-01
       8.3384924E-01
       5.5708242E-01
       5.7166883E-01
       8.5196759E-01
       8.7339730E-01
       8.7706531E-01
       9.4882954E-01
       8.3931816E-01
       8.1068454E-01
       7.6848440E-01
       5.3587697E-01
       6.8044160E-01
       6.2707837E-01
       6.5344716E-01
       7.3223365E-01
       7.7023604E-01
       6.3966698E-01
       6.1128693E-01
       4.1245346E-01
       7.2547606E-01
       1.0305949E+00
       7.0364333E-01
       7.9926408E-01
       4.6678463E-01
       8.0754376E-01
       4.9858535E-01
       5.0858187E-01
       4.9730065E-01
       4.4297719E-01
       4.4707920E-01
       3.8532326E-01
       4.3567216E-01
       3.9810539E-01
       3.6112402E-01
       3.5703504E-01
       3.7944334E-01
       3.3445749E-01
       3.9270591E-01
       3.2853500E-01
       3.4936909E-01
       3.5974667E-01
       3.2240637E-01
       3.3496838E-01
       3.0321837E-01
       2.8251333E-01
       2.7722949E-01
       3.0297098E-01
       3.2733720E-01
       3.2784166E-01
       2.5233403E-01
       3.0274718E-01
       4.5216352E-01
       5.0093563E-01
       4.3460978E-01
       5.0036517E-01
       6.1512437E-01
       6.2477667E-01
       6.0637762E-01
       6.2946497E-01
       6.0863065E-01
       5.8102788E-01
       6.3900402E-01
       6.0058485E-01
       7.0241675E-01
       6.1712136E-01
       6.8523007E-01
       6.6325884E-01
       7.2416531E-01
       6.4148975E-01
       6.8651299E-01
       6.6246924E-01
       6.3154543E-01
       7.0132264E-01
       6.4738748E-01
       6.9150520E-01
       6.5196745E-01
       6.8046133E-01