# vtk DataFile Version 3.0
# Solution du M1 TR
ASCII
DATASET UNSTRUCTURED_GRID
POINTS   3280  float
0.0000000E+00  0.0000000E+00  0.1073662E+01
0.2000000E+01  0.0000000E+00  0.1084666E+01
0.2000000E+01  0.1000000E+01  0.1123247E+01
0.0000000E+00  0.1000000E+01  0.1073298E+01
0.1000000E+01  0.0000000E+00  0.7865341E+00
0.1000000E+01  0.1000000E+01  0.7768115E+00
0.1500000E+01  0.5000000E+00  0.1701262E+01
0.1500000E+01  0.0000000E+00  0.5205083E+00
0.1723284E+01  0.3570951E+00  0.1328064E+00
0.1500000E+01  0.2500000E+00  0.8318295E+00
0.1515103E+01  0.2763186E+00  0.7528379E+00
0.1594866E+01  0.2826386E+00  0.5056663E+00
0.1562500E+01  0.1875000E+00  0.7436973E+00
0.1534357E+01  0.1819434E+00  0.7472539E+00
0.1561083E+01  0.3343258E+00  0.6402925E+00
0.1750000E+01  0.0000000E+00  0.6298339E+00
0.1503267E+01  0.1622339E+00  0.7292897E+00
0.1514910E+01  0.2261192E+00  0.8070483E+00
0.1610795E+01  0.1290247E+00  0.6513891E+00
0.1539062E+01  0.1536458E+00  0.7113183E+00
0.1510772E+01  0.1982718E+00  0.7782552E+00
0.1541862E+01  0.2179813E+00  0.7707986E+00
0.1475030E+01  0.2178147E+00  0.8270698E+00
0.1539206E+01  0.2578835E+00  0.7342099E+00
0.1521085E+01  0.2465697E+00  0.7927779E+00
0.1496499E+01  0.2146241E+00  0.8130610E+00
0.1481433E+01  0.1870688E+00  0.7594040E+00
0.1586261E+01  0.1960616E+00  0.7075724E+00
0.1460896E+01  0.2899333E+00  0.8648426E+00
0.1542195E+01  0.2867649E+00  0.6262986E+00
0.1486080E+01  0.2754813E+00  0.8270081E+00
0.1536278E+01  0.3247610E+00  0.7167070E+00
0.1510131E+01  0.3295675E+00  0.8945892E+00
0.1455545E+01  0.2514402E+00  0.8801457E+00
0.1610995E+01  0.1909452E+00  0.6652731E+00
0.1564462E+01  0.2395252E+00  0.7149137E+00
0.1571524E+01  0.3026484E+00  0.4531180E+00
0.1613657E+01  0.2555806E+00  0.5488292E+00
0.1633998E+01  0.2714643E+00  0.4618050E+00
0.1534973E+01  0.3650914E+00  0.9945400E+00
0.1583157E+01  0.2286349E+00  0.6983448E+00
0.1586501E+01  0.1581416E+00  0.7006170E+00
0.1651985E+01  0.2274641E+00  0.5642599E+00
0.1619170E+01  0.2936434E+00  0.3904759E+00
0.1678889E+01  0.2641389E+00  0.3859956E+00
0.1642286E+01  0.2930521E+00  0.3669179E+00
0.1526415E+01  0.3446283E+00  0.8831963E+00
0.1662420E+01  0.3044259E+00  0.3077643E+00
0.1636786E+01  0.2469276E+00  0.5550050E+00
0.1588953E+01  0.3366240E+00  0.4490062E+00
0.1616427E+01  0.3314099E+00  0.2510357E+00
0.1598305E+01  0.3102698E+00  0.3568519E+00
0.1655410E+01  0.2614708E+00  0.4506985E+00
0.1487553E+01  0.3072167E+00  0.8135136E+00
0.1520126E+01  0.3036443E+00  0.6380471E+00
0.1477894E+01  0.2544664E+00  0.8656797E+00
0.1567847E+01  0.2133479E+00  0.7352072E+00
0.1663947E+01  0.3299725E+00  0.1938159E+00
0.1567022E+01  0.2696000E+00  0.6232863E+00
0.1678598E+01  0.3509559E+00  0.1376929E+00
0.1611933E+01  0.3827205E+00  0.6447211E+00
0.1640491E+01  0.3197373E+00  0.2724529E+00
0.1588015E+01  0.2526666E+00  0.6339099E+00
0.1708471E+01  0.3144917E+00  0.2217986E+00
0.1606944E+01  0.3564315E+00  0.4570988E+00
0.1604614E+01  0.2314093E+00  0.6491975E+00
0.1643491E+01  0.3631133E+00  0.1616849E+00
0.2000000E+01  0.5000000E+00  0.1215029E+00
0.1494727E+01  0.3621796E+00  0.1171563E+01
0.1701807E+01  0.3477237E+00  0.1489098E+00
0.1572156E+01  0.3701847E+00  0.8480046E+00
0.1688392E+01  0.3285111E+00  0.2022399E+00
0.1695932E+01  0.3904821E+00  0.1205485E+00
0.1636337E+01  0.3418163E+00  0.1804193E+00
0.1505941E+01  0.9448485E-01  0.5812216E+00
0.1423727E+01  0.1910920E+00  0.7124665E+00
0.1481447E+01  0.3359634E+00  0.1040941E+01
0.1441613E+01  0.3726133E+00  0.1306350E+01
0.1466699E+01  0.3599060E+00  0.1204050E+01
0.1476682E+01  0.4107296E+00  0.1477848E+01
0.1434448E+01  0.3273535E+00  0.1061343E+01
0.1464523E+01  0.3867258E+00  0.1373614E+01
0.1456903E+01  0.3373583E+00  0.1094790E+01
0.1454188E+01  0.3132491E+00  0.9019549E+00
0.1424069E+01  0.2919612E+00  0.9139748E+00
0.1490969E+01  0.3884111E+00  0.1345838E+01
0.1428051E+01  0.4202828E+00  0.1555680E+01
0.1513790E+01  0.3782958E+00  0.1204245E+01
0.1547789E+01  0.4092466E+00  0.1268609E+01
0.1535154E+01  0.3889763E+00  0.1187709E+01
0.1512699E+01  0.4170463E+00  0.1461203E+01
0.1441554E+01  0.3983607E+00  0.1469778E+01
0.1395941E+01  0.3853832E+00  0.1417487E+01
0.1420578E+01  0.3854393E+00  0.1417817E+01
0.1408336E+01  0.3518173E+00  0.1231854E+01
0.1549967E+01  0.3074339E+00  0.5001514E+00
0.1651639E+01  0.4114272E+00  0.4611604E+00
0.1668616E+01  0.3788978E+00  0.1220982E+00
0.1674624E+01  0.4027285E+00  0.1184414E+00
0.1706988E+01  0.4343785E+00  0.1128505E+00
0.1673984E+01  0.4357547E+00  0.3246955E+00
0.1695270E+01  0.4139894E+00  0.1148084E+00
0.1737273E+01  0.4034108E+00  0.1144057E+00
0.1645630E+01  0.3875965E+00  0.3522012E+00
0.1625874E+01  0.4052508E+00  0.6909274E+00
0.1627808E+01  0.4540126E+00  0.9286309E+00
0.1587158E+01  0.4136289E+00  0.1070355E+01
0.1633718E+01  0.4293591E+00  0.7625422E+00
0.1651607E+01  0.4466828E+00  0.6482449E+00
0.1605650E+01  0.4356658E+00  0.1050631E+01
0.1682168E+01  0.4808869E+00  0.3538118E+00
0.1671711E+01  0.4594749E+00  0.4466269E+00
0.1698428E+01  0.4596870E+00  0.1122664E+00
0.1646221E+01  0.4851828E+00  0.8056178E+00
0.1607747E+01  0.4151289E+00  0.9214091E+00
0.1584205E+01  0.4841185E+00  0.1352678E+01
0.1747573E+01  0.4622079E+00  0.1103361E+00
0.1568396E+01  0.4481495E+00  0.1358091E+01
0.1601760E+01  0.4629165E+00  0.1185331E+01
0.1723356E+01  0.4540167E+00  0.1115402E+00
0.1732897E+01  0.4294241E+00  0.1119711E+00
0.1722218E+01  0.4972746E+00  0.1101712E+00
0.1715121E+01  0.4754441E+00  0.1106981E+00
0.1584567E+01  0.4345797E+00  0.1202228E+01
0.1563465E+01  0.4258523E+00  0.1288908E+01
0.1534166E+01  0.4440258E+00  0.1499916E+01
0.1615090E+01  0.4918227E+00  0.1121817E+01
0.1717469E+01  0.4134541E+00  0.1142928E+00
0.1718488E+01  0.3909170E+00  0.1183079E+00
0.1741353E+01  0.3769080E+00  0.1208546E+00
0.1781199E+01  0.4241746E+00  0.1112073E+00
0.2000000E+01  0.2500000E+00  0.5879255E+00
0.1756308E+01  0.4199875E+00  0.1120590E+00
0.1762447E+01  0.3937207E+00  0.1144501E+00
0.1765097E+01  0.4438197E+00  0.1105154E+00
0.1807974E+01  0.4625425E+00  0.1091314E+00
0.1789176E+01  0.4471344E+00  0.1097285E+00
0.1514158E+01  0.1287364E+00  0.6560170E+00
0.1777674E+01  0.4803377E+00  0.1095330E+00
0.1811145E+01  0.4395021E+00  0.1096418E+00
0.1850404E+01  0.4566449E+00  0.1084869E+00
0.1748483E+01  0.3522599E+00  0.1364887E+00
0.1731235E+01  0.3304535E+00  0.1694326E+00
0.1777870E+01  0.3654441E+00  0.1218905E+00
0.1748149E+01  0.2821176E+00  0.2820278E+00
0.1732875E+01  0.3039003E+00  0.2373521E+00
0.1708314E+01  0.2807181E+00  0.3078355E+00
0.1767650E+01  0.3193756E+00  0.1718901E+00
0.1372661E+01  0.1704076E+00  0.6186810E+00
0.1411157E+01  0.2494459E+00  0.8288820E+00
0.1448000E+01  0.2246098E+00  0.8104451E+00
0.1360382E+01  0.2278583E+00  0.6919134E+00
0.1433680E+01  0.2431125E+00  0.8600164E+00
0.1388814E+01  0.2314916E+00  0.7497503E+00
0.1314549E+01  0.2124991E+00  0.6384326E+00
0.1404157E+01  0.2007613E+00  0.7108871E+00
0.1415035E+01  0.1072182E+00  0.5704292E+00
0.1520299E+01  0.1091515E+00  0.6232283E+00
0.1459010E+01  0.1690672E+00  0.7027901E+00
0.1436337E+01  0.2690050E+00  0.9101295E+00
0.1443480E+01  0.1263360E+00  0.6016859E+00
0.1625000E+01  0.0000000E+00  0.5717454E+00
0.1414954E+01  0.2197329E+00  0.7738806E+00
0.1335299E+01  0.2266424E+00  0.6581953E+00
0.1396801E+01  0.1612344E+00  0.6255626E+00
0.1792033E+01  0.3934232E+00  0.1135478E+00
0.1541310E+01  0.1264947E+00  0.6669003E+00
0.1483859E+01  0.1256971E+00  0.6318905E+00
0.1500341E+01  0.1139400E+00  0.6224573E+00
0.1498380E+01  0.1421255E+00  0.6728017E+00
0.1478242E+01  0.1468909E+00  0.6751447E+00
0.1453147E+01  0.1972183E+00  0.7643216E+00
0.1348833E+01  0.2067866E+00  0.6488534E+00
0.1368157E+01  0.2800764E+00  0.8497632E+00
0.1250000E+01  0.0000000E+00  0.6180876E+00
0.1496272E+01  0.2780308E-01  0.5137644E+00
0.1430228E+01  0.1622338E+00  0.6472939E+00
0.1544491E+01  0.1012427E+00  0.6143176E+00
0.1505524E+01  0.5428530E-01  0.5415844E+00
0.1576405E+01  0.1180891E+00  0.6503546E+00
0.1526885E+01  0.8834234E-01  0.5751826E+00
0.1558557E+01  0.6358195E-01  0.5594911E+00
0.1372206E+01  0.9428859E-01  0.5668485E+00
0.1414069E+01  0.8636887E-01  0.5518677E+00
0.1351230E+01  0.1581055E+00  0.5986814E+00
0.1371634E+01  0.2528708E+00  0.7711322E+00
0.1392978E+01  0.2694234E+00  0.8586469E+00
0.1321668E+01  0.2603105E+00  0.6941108E+00
0.1392566E+01  0.3027057E+00  0.9364688E+00
0.1345601E+01  0.2495441E+00  0.7038184E+00
0.1349996E+01  0.1827855E+00  0.6223525E+00
0.1475238E+01  0.9618066E-01  0.5814605E+00
0.1487372E+01  0.4556180E+00  0.1657424E+01
0.1432024E+01  0.3509343E+00  0.1184544E+01
0.1619231E+01  0.5383449E+00  0.1031636E+01
0.1532505E+01  0.4233173E+00  0.1415570E+01
0.1547332E+01  0.4788657E+00  0.1546939E+01
0.1627786E+01  0.4750493E+00  0.9830282E+00
0.1750658E+01  0.4911384E+00  0.1095728E+00
0.1783313E+01  0.5336292E+00  0.1091538E+00
0.1744147E+01  0.5299352E+00  0.1098930E+00
0.1772978E+01  0.5077787E+00  0.1091755E+00
0.1739682E+01  0.5092411E+00  0.1097418E+00
0.1715917E+01  0.5251974E+00  0.1105334E+00
0.1809547E+01  0.4999146E+00  0.1085821E+00
0.1486188E+01  0.5335558E+00  0.1659635E+01
0.1695320E+01  0.5058771E+00  0.1791829E+00
0.1793562E+01  0.5145404E+00  0.1088223E+00
0.1827482E+01  0.5355643E+00  0.1083393E+00
0.1805457E+01  0.5332234E+00  0.1086891E+00
0.1812320E+01  0.5734372E+00  0.1085913E+00
0.1794794E+01  0.5557356E+00  0.1088688E+00
0.1637325E+01  0.5533192E+00  0.8023633E+00
0.1761146E+01  0.5591762E+00  0.1094698E+00
0.1789115E+01  0.5788851E+00  0.1091426E+00
0.1693317E+01  0.6123782E+00  0.1163800E+00
0.1522396E+01  0.5359490E+00  0.1593436E+01
0.1814654E+01  0.6254783E+00  0.1134517E+00
0.1726166E+01  0.5505978E+00  0.1103093E+00
0.1691322E+01  0.5307786E+00  0.2032057E+00
0.1516987E+01  0.5143680E+00  0.1652428E+01
0.1661909E+01  0.5147686E+00  0.6217617E+00
0.1761865E+01  0.6508066E+00  0.1284362E+00
0.1692174E+01  0.5698207E+00  0.1122727E+00
0.1780214E+01  0.6037461E+00  0.1113013E+00
[...]
POINT_DATA    3280
SCALARS hauteur float
LOOKUP_TABLE DEFAULT
       9.7366175E-01
       9.8466597E-01
       1.0232466E+00
       9.7329765E-01
       6.8653414E-01
       6.7681153E-01
       1.0126167E-01
       4.2050827E-01
       3.2806415E-02
       7.3182948E-01
       6.5283791E-01
       4.0566632E-01
       6.4369730E-01
       6.4725389E-01
       2.0950859E-01
       5.2983388E-01
       6.2928968E-01
       7.0704827E-01
       5.5138909E-01
       6.1131830E-01
       6.7825524E-01
       6.7079861E-01
       7.2706976E-01
       6.3420990E-01
       6.9277795E-01
       7.1306102E-01
       6.5940396E-01
       6.0757242E-01
       7.6484260E-01
       5.2629862E-01
       7.2700813E-01
       3.1763657E-01
       3.8770911E-01
       7.8014573E-01
       5.6527307E-01
       6.1491373E-01
       3.5311799E-01
       4.4882916E-01
       3.6180499E-01
       1.2292040E-01
       5.9834482E-01
       6.0061699E-01
       4.6425988E-01
       2.9047587E-01
       2.8599556E-01
       2.6691791E-01
       2.1462527E-01
       2.0776433E-01
       4.5500502E-01
       1.4666776E-01
       1.5103571E-01
       2.5685191E-01
       3.5069855E-01
       6.1302530E-01
       4.9907033E-01
       7.6567965E-01
       6.3520723E-01
       9.3815899E-02
       5.2328627E-01
       3.7692872E-02
       3.0351732E-02
       1.7245292E-01
       5.3390989E-01
       1.2179856E-01
       5.8931951E-02
       5.4919754E-01
       3.6470066E-02
       2.1502913E-02
       2.8489838E-01
       4.8909829E-02
       7.5196639E-02
       1.0223993E-01
       2.0548534E-02
       8.0419280E-02
       4.8122162E-01
       6.1246646E-01
       4.6289901E-01
       4.4271453E-01
       3.8162370E-01
       1.9708202E-01
       7.4024014E-01
       3.0197587E-01
       5.5640249E-01
       6.8850266E-01
       8.1397477E-01
       2.1584930E-01
       3.8811270E-01
       1.6682329E-01
       6.3108882E-02
       9.6287080E-02
       1.2529951E-01
       3.8526854E-01
       7.1618760E-01
       5.4651871E-01
       7.7037216E-01
       3.8433935E-01
       1.7641477E-02
       2.2098204E-02
       1.6770957E-02
       1.2850534E-02
       1.4618629E-02
       1.4808357E-02
       1.4405706E-02
       2.1300588E-02
       2.1742222E-02
       2.0490863E-02
       3.4974942E-02
       2.0186780E-02
       1.6775033E-02
       2.4410664E-02
       1.1958243E-02
       1.3892287E-02
       1.2266374E-02
       1.5624802E-02
       2.6881049E-02
       2.8028365E-02
       1.0336056E-02
       3.4335005E-02
       2.5219885E-02
       1.1540209E-02
       1.1971060E-02
       1.0171206E-02
       1.0698081E-02
       3.0908061E-02
       4.6121186E-02
       6.1181344E-02
       2.1037929E-02
       1.4292804E-02
       1.8307891E-02
       2.0854641E-02
       1.1207290E-02
       4.8792555E-01
       1.2059026E-02
       1.4450083E-02
       1.0515395E-02
       9.1313903E-03
       9.7285326E-03
       5.5601702E-01
       9.5329794E-03
       9.6418141E-03
       8.4868623E-03
       3.6488715E-02
       6.9432556E-02
       2.1890459E-02
       1.8202777E-01
       1.3735211E-01
       2.0783550E-01
       7.1890137E-02
       5.1868098E-01
       7.2888204E-01
       7.1044510E-01
       5.9191338E-01
       7.6001640E-01
       6.4975029E-01
       5.3843264E-01
       6.1088713E-01
       4.7042921E-01
       5.2322834E-01
       6.0279012E-01
       8.1012948E-01
       5.0168592E-01
       4.7174539E-01
       6.7388058E-01
       5.5819531E-01
       5.2556261E-01
       1.3547775E-02
       5.6690026E-01
       5.3189047E-01
       5.2245734E-01
       5.7280165E-01
       5.7514474E-01
       6.6432164E-01
       5.4885335E-01
       7.4976323E-01
       5.1808764E-01
       4.1376445E-01
       5.4729391E-01
       5.1431759E-01
       4.4158436E-01
       5.5035462E-01
       4.7518259E-01
       4.5949108E-01
       4.6684852E-01
       4.5186771E-01
       4.9868135E-01
       6.7113217E-01
       7.5864688E-01
       5.9411084E-01
       8.3646879E-01
       6.0381836E-01
       5.2235247E-01
       4.8146054E-01
       1.3727021E-01
       5.9109267E-01
       1.9874125E-02
       7.5699688E-02
       4.7701105E-02
       1.8721799E-02
       9.5727507E-03
       9.1537822E-03
       9.8930086E-03
       9.1754947E-03
       9.7418358E-03
       1.0533354E-02
       8.5821346E-03
       1.0901358E-01
       1.1103935E-02
       8.8223263E-03
       8.3392819E-03
       8.6891275E-03
       8.5913343E-03
       8.8687622E-03
       1.6156074E-02
       9.4698296E-03
       9.1425571E-03
       1.6380034E-02
       6.0707942E-02
       1.3451727E-02
       1.0309270E-02
       1.1378620E-02
       7.0990847E-02
       1.2985180E-02
       2.8436186E-02
       1.2272670E-02
       1.1301267E-02
       3.6640715E-02
       1.2794394E-02
       1.1177292E-02
       2.8273065E-02
       1.9107042E-01
       1.4561944E-02
       2.1248937E-02
       1.0274364E-01
       1.8451819E-01
       2.5289780E-02
       1.8554522E-01
       4.3147326E-02
       1.9045612E-01
       2.5393278E-02
       3.4075701E-02
       1.4816881E-02
       1.8308561E-01
       3.5393407E-01
       1.1182715E-02
       1.2526220E-02
       1.0590094E-02
       1.3164678E-02
       1.8565814E-02
       3.8747229E-02
       3.7063066E-02
       6.0362039E-01
       5.6678193E-01
       5.7206885E-01
       5.9327763E-01
       6.2259208E-01
       4.8916960E-01
       4.8911987E-01
       5.0157333E-01
       4.7143779E-01
       4.2782434E-01
       4.5322869E-01
       4.3231601E-01
       5.2391398E-01
       5.1899329E-01
       4.8116206E-01
       5.2648048E-01
       4.9053066E-01
       5.3332920E-01
       4.6958018E-01
       5.0471250E-01
       5.1133544E-01
       5.4948369E-01
       5.5249354E-01
       5.7980619E-01
       4.5199350E-01
       5.0464832E-01
       4.8685321E-01
       5.3830808E-01
       5.0997903E-01
       4.9822318E-01
       5.0147253E-01
       5.5837983E-01
       4.5129521E-01
       4.5146703E-01
       5.0283168E-01
       4.4292568E-01
       4.8587646E-01
       4.2596914E-01
       8.3188386E-01
       8.4263215E-01
       8.7642628E-01
       8.7086820E-01
       8.2291325E-01
       1.4611866E-01
       9.2458359E-02
       2.2095827E-01
       6.5635618E-02
       6.6894029E-02
       2.7315265E-02
       4.8363009E-02
       1.5607789E-02
       4.6445402E-02
       3.5283035E-02
       9.1059755E-03
       8.6736154E-03
       8.2202869E-03
       9.5738902E-03
       1.3118747E-02
       1.5651846E-02
       1.0234563E-02
       1.6955745E-02
       2.6198464E-02
       7.4334182E-02
       4.5912561E-02
       3.8759714E-02
       2.4409519E-02
       5.5727317E-02
       1.1142607E-01
       4.7217272E-02
       2.1644504E-02
       6.1283424E-02
       4.3991601E-01
       6.3305559E-02
       3.7471081E-02
       1.3520640E-01
       1.6925910E-02
       6.2300171E-02
       5.3807165E-01
       9.6206207E-03
       8.9970928E-02
       1.1691499E-01
       1.1317398E-01
       1.2031270E-02
       4.2733203E-01
       2.2248565E-02
       1.8452976E-02
       2.6523302E-01
       3.7184885E-02
       1.1734687E-02
       2.3035586E-02
       1.9352489E-01
       2.9478992E-01
       6.3443106E-02
       3.0521597E-02
       3.3534685E-01
       3.8391164E-01
       4.5277874E-01
       2.9403713E-01
       3.6339403E-01
       3.9457256E-01
       2.5374798E-01
       4.1738380E-01
       3.1013000E-01
       2.1690202E-02
       8.8715949E-03
       2.7468301E-02
       1.6209115E-01
       4.5472909E-01
       4.2223336E-01
       4.7154198E-01
       4.5790887E-01
       4.9591629E-01
       4.8625419E-01
       5.1897437E-01
       4.7404659E-01
       4.6530416E-01
       4.6757960E-01
       4.5032445E-01
       4.1754907E-01
       4.3738457E-01
       4.3383976E-01
       4.1580294E-01
       4.2197766E-01
       4.2841752E-01
       4.4526004E-01
       8.0662830E-01
       9.0450621E-01
       8.1679901E-01
       7.3501802E-01
       7.2160924E-01
       6.6094138E-01
       6.4664070E-01
       5.8358026E-01
       6.2665376E-01
       6.4030540E-01
       5.7865406E-01
       6.1612720E-01
       5.8267201E-01
       5.9288383E-01
       5.6385394E-01
       5.7149046E-01
       5.6064107E-01
       5.5397874E-01
       5.6429681E-01
       5.3717824E-01
       5.3497755E-01
       5.4791512E-01
       5.5425239E-01
       5.5130345E-01
       5.2259413E-01
       5.2622568E-01
       5.2161599E-01
       5.1084935E-01
       5.1458757E-01
       8.9615379E-01
       8.5231049E-01
       8.2412177E-01
       9.1661069E-01
       8.6924746E-01
       9.1402772E-01
       7.8491963E-01
       8.1081779E-01
       6.6921662E-01
       8.8868188E-01
       8.5839562E-01
       7.0389138E-01
       7.3555856E-01
       8.1485850E-01
       8.1523085E-01
       6.5055217E-01
       6.6410035E-01
       6.1089820E-01
       6.8363540E-01
       6.3779705E-01
       6.0144883E-01
       5.9515910E-01
       5.8899898E-01
       5.8371404E-01
       7.4697516E-01
       6.3296737E-01
       6.0666885E-01
       6.1125457E-01
       6.0131101E-01
       7.8419284E-01
       6.1738736E-01
       8.0022632E-01
       6.0495473E-01
       8.6081839E-01
       6.5731960E-01
       6.0793442E-01
       6.1690671E-01
       6.1613587E-01
       6.3522116E-01
       6.2708218E-01
       6.2747655E-01
       6.0478552E-01
       8.6928566E-01
       7.0943162E-01
       6.2377047E-01
       6.2504697E-01
       6.2787443E-01
       6.5139718E-01
       6.4268415E-01
       6.1795194E-01
       6.4748681E-01
       8.8531743E-01
       8.2981310E-01
       6.3621233E-01
       6.3057173E-01
       6.3147346E-01
       6.4015840E-01
       6.4887543E-01
       7.4219589E-01
       8.2969557E-01
       6.6528092E-01
       8.9494962E-01
       6.7360589E-01
       6.5509301E-01
       6.6539812E-01
       6.9817203E-01
       7.2267784E-01
       6.5425802E-01
       6.5639798E-01
       6.7697391E-01
       6.7119823E-01
       6.9100645E-01
       6.8872022E-01
       8.3305297E-01
       7.0638293E-01
       8.8692089E-01
       4.4423646E-01
       8.9225048E-01
       5.9160529E-01
       6.5713820E-01
       5.2187847E-01
       6.7897201E-01
       7.1690457E-01
       4.8125662E-01
       6.7931981E-01
       6.8267780E-01
       7.0054847E-01
       7.0319275E-01
       3.1754318E-01
       5.0340757E-01
       3.9040674E-01
       2.0400400E-01
       3.0093598E-01
       2.8852695E-01
       6.7780621E-01
       6.6372416E-01
       6.9171723E-01
       6.8958487E-01
       2.0688075E-01
       1.3963416E-01
       6.5531712E-01
       7.1330080E-01
       7.0554249E-01
       6.7183661E-01
       1.5350930E-01
       7.3104275E-01
       6.7447608E-01
       6.5861311E-01
       2.3413189E-01
       7.1555362E-01
       7.2348553E-01
       7.2083232E-01
       7.4159951E-01
       7.0953801E-01
       7.4005645E-01
       7.3034743E-01
       7.2686673E-01
       7.2738660E-01
       7.2283029E-01
       7.0706806E-01
       7.0145364E-01
       7.4669129E-01
       7.3842180E-01
       7.5500939E-01
       7.3507466E-01
       7.4046325E-01
       2.8222835E-01
       8.4597842E-03
       8.2382023E-03
       7.8796120E-03
       8.1193050E-03
       8.3730660E-03
       7.8923193E-03
       8.2400304E-03
       8.9947963E-03
       1.1071533E-02
       1.9788878E-02
       1.5211139E-02
       5.4667034E-02
       8.0542106E-03
       9.6061023E-03
       1.2840801E-02
       1.7181840E-02
       8.3183446E-03
       5.1901316E-02
       1.3908098E-02
       7.8805657E-03
       2.8036665E-02
       1.0829639E-02
       6.8788976E-02
       4.0108217E-02
       2.2438820E-02
       1.4279198E-01
       1.4483449E-02
       1.4420047E-02
       1.8491633E-02
       1.9896332E-02
       1.6935490E-02
       2.6334903E-02
       5.2137255E-02
       3.0268268E-02
       7.6066734E-02
       6.8038880E-02
       4.2183173E-02
       4.4128657E-02
       3.6205511E-02
       6.0963138E-02
       1.0177756E-01
       1.9675570E-01
       1.0403536E-01
       1.3917393E-01
       1.9041285E-01
       1.3589335E-01
       9.7693587E-02
       1.2010148E-01
       3.0097346E-01
       2.0479345E-01
       5.1188951E-01
       3.7823029E-01
       5.7546013E-01
       5.5686706E-01
       4.5655620E-01
       7.2733191E-01
       3.8284788E-01
       6.7515575E-01
       6.5300535E-01
       7.4251877E-01
       6.7247877E-01
       6.4675365E-01
       6.3849262E-01
       6.8487744E-01
       7.0275748E-01
       7.1735253E-01
       4.3078792E-01
       8.2688342E-01
       7.7289298E-01
       7.6133468E-01
       6.8605085E-01
       7.9227767E-01
       7.2009911E-01
       7.6908177E-01
       7.0997409E-01
       7.3255448E-01
       5.2808014E-01
       4.1544853E-01
       3.4071085E-01
       4.7675158E-01
       7.4293915E-01
       6.2088700E-01
       5.2121973E-01
       9.4637940E-03
       9.9664770E-03
       1.0940394E-02
       1.1231339E-02
       1.5464591E-02
       1.7463403E-01
       3.6560438E-02
       1.0597821E-01
       1.2362037E-01
       9.2491772E-03
       2.3465308E-02
       1.7164376E-01
       3.3622507E-01
       3.5447880E-01
       3.8899698E-01
       4.6697502E-01
       4.2051757E-01
       4.4136631E-01
       4.0922553E-01
       4.6117271E-01
       5.0100804E-01
       5.2102354E-01
       4.8485287E-01
       3.7994435E-01
       3.5674297E-01
       4.0003033E-01
       4.2524972E-01
       4.0900863E-01
       4.3891910E-01
       3.7737518E-01
       4.6524692E-01
       3.9297522E-01
       3.0764933E-01
       3.5328504E-01
       2.8805229E-01
       2.6322176E-01
       1.9771280E-02
       9.1444049E-02
       4.2364864E-01
       4.4555487E-01
       4.7094719E-01
       4.7697286E-01
       5.2288639E-01
       4.7751221E-01
       4.8580063E-01
       4.2092259E-01
       4.2490130E-01
       4.3198990E-01
       4.1272759E-01
       4.1341497E-01
       4.1706825E-01
       5.2951762E-01
       5.2762284E-01
       5.5233239E-01
       5.3868152E-01
       5.4232180E-01
       5.5930783E-01
       5.5726441E-01
       5.4019794E-01
       5.7333006E-01
       5.6898129E-01
       5.5105981E-01
       5.7611201E-01
       5.4666118E-01
       5.9788636E-01
       5.2812172E-01
       5.4398328E-01
       5.8129971E-01
       5.5707209E-01
       5.7238398E-01
       5.5368330E-01
       4.8050028E-01
       5.3658719E-01
       5.2526803E-01
       5.8463698E-01
       5.9594505E-01
       5.0235641E-01
       4.9348902E-01
       9.0565663E-01
       5.9792749E-01
       5.9386535E-01
       8.3771563E-01
       7.0373315E-01
       6.2018214E-01
       6.1870469E-01
       6.6943856E-01
       6.4136406E-01
       7.0109470E-01
       7.2463255E-01
       7.5082032E-01
       7.3530231E-01
       7.3979708E-01
       7.6129050E-01
       7.5390110E-01
       7.4596398E-01
       7.6798568E-01
       7.4670381E-01
       7.3094292E-01
       6.9421459E-01
       6.9270944E-01
       7.1337781E-01
       7.1806921E-01
       6.9453405E-01
       6.8690217E-01
       7.0006461E-01
       7.5312750E-01
       7.6961665E-01
       7.9173593E-03
       7.5658160E-03
       7.9666056E-03
       2.5313109E-02
       2.0277362E-02
       2.3281905E-02
       3.9071878E-02
       7.9612884E-02
       2.4569137E-02
       9.1862682E-02
       2.3943171E-01
       1.9485324E-01
       5.1815658E-02
       4.7006030E-02
       5.4434615E-01
       2.4752735E-01
       3.2401230E-01
       5.9931713E-01
       2.8714284E-01
       5.7627779E-01
       7.2019063E-02
       4.7036959E-02
       1.2440399E-01
       8.8533163E-03
       2.0831352E-01
       1.8255850E-01
       4.7209102E-02
       1.5889832E-01
       1.3030529E-01
       8.7755066E-02
       2.8639770E-02
       9.1222077E-03
       1.9148619E-01
       1.7844517E-01
       9.1282150E-01
       1.3348163E-01
       1.8663592E-01
       1.2282996E-02
       1.0593298E-02
       1.2125267E-01
       2.4459215E-01
       3.0222717E-01
       4.5736121E-01
       1.8850148E-01
       2.7873843E-01
       1.7161432E-01
       3.8539436E-01
       3.0657181E-01
       3.4837775E-01
       5.0277180E-01
       2.5326265E-01
       4.5691889E-01
       4.4690964E-01
       1.9678277E-01
       3.9676911E-01
       4.7122141E-01
       4.9679516E-01
       5.6045329E-01
       4.8890556E-01
       5.3405996E-01
       5.1176458E-01
       5.6243134E-01
       5.3651736E-01
       5.2928412E-01
       5.1320805E-01
       5.4919366E-01
       4.8427082E-01
       4.6711324E-01
       4.6945821E-01
       4.2534092E-01
       4.9232076E-01
       4.4956066E-01
       4.4078376E-01
       4.6126228E-01
       5.9266836E-01
       5.7596027E-01
       6.0440042E-01
       3.4599334E-01
       2.9323045E-01
       2.2968845E-01
       3.0376793E-01
       2.4853707E-01
       1.7508950E-01
       2.1794459E-01
       7.4715276E-02
       4.7378505E-01
       4.7149565E-01
       5.1714555E-01
       5.1974150E-01
       4.9489100E-01
       5.0829884E-01
       5.1867181E-01
       4.9569985E-01
       5.0852745E-01
       5.3184441E-01
       5.8722945E-01
       6.3325813E-01
       6.2353078E-01
       6.2296041E-01
       6.2285694E-01
       6.1825240E-01
       6.3710544E-01
       6.2641270E-01
       6.1413334E-01
       6.1623423E-01
       6.7152636E-01
       7.4583765E-01
       8.4052833E-01
       8.5396303E-01
       7.3299405E-01
       8.0242830E-01
       7.8323183E-01
       7.9345317E-01
       7.9224830E-01
       7.6787849E-01
       8.1830148E-01
       7.4803096E-01
       8.0318032E-01
       8.2734628E-01
       7.5949990E-01
       6.3077528E-01
       8.1989653E-01
       8.0868647E-01
       7.7269715E-01
       7.6884969E-01
       7.8103206E-01
       8.0989493E-01
       7.8978131E-01
       7.1670010E-01
       7.8199211E-01
       7.3615852E-01
       8.2033185E-01
       7.7019035E-01
       8.0103671E-01
       7.9091290E-01
       7.9775478E-01
       7.8188794E-01
       8.0478157E-01
       7.7832216E-01
       7.9926788E-01
       7.8245231E-01
       7.4282627E-01
       7.9018928E-01
       8.0987715E-01
       7.5827503E-01
       7.7326537E-01
       8.9827051E-01
       8.2698752E-01
       8.1707399E-01
       8.3474571E-01
       7.9106503E-01
       8.2229373E-01
       7.2370118E-01
       7.2575447E-01
       8.2616907E-01
       8.3220049E-01
       8.3305943E-01
       8.4941404E-01
       8.2201112E-01
       8.1531821E-01
       7.9503410E-01
       7.1755586E-01
       7.6864665E-01
       7.4787546E-01
       7.5531450E-01
       7.9190920E-01
       7.9334852E-01
       7.5598640E-01
       7.4048233E-01
       6.6344167E-01
       7.8089031E-01
       8.6690233E-01
       7.7959054E-01
       8.1121665E-01
       6.9035199E-01
       8.1241850E-01
       7.0462326E-01
       7.0638906E-01
       6.9902943E-01
       6.7512611E-01
       6.7924696E-01
       6.5503519E-01
       6.7622410E-01
       6.5938688E-01
       6.4243694E-01
       6.4240620E-01
       6.4898005E-01
       6.3345714E-01
       6.5249929E-01
       6.2418181E-01
       6.3490067E-01
       6.3781800E-01
       6.2298341E-01
       6.3080968E-01
       6.1653888E-01
       6.0427297E-01
       5.9905995E-01
       6.1087563E-01
       6.2167113E-01
       6.1933478E-01
       5.9197978E-01
       6.1243095E-01
       6.8623018E-01
       7.1149922E-01
       6.8186436E-01
       7.0696635E-01
       7.5441747E-01
       7.5970484E-01
       7.5276044E-01
       7.5995134E-01
       7.5298345E-01
       7.4239542E-01
       7.6366774E-01
       7.4970575E-01
       7.8508037E-01
       7.5474072E-01
       7.7922776E-01
       7.7114174E-01
       7.9220881E-01
       7.6316356E-01
       7.7760577E-01
       7.6963680E-01
       7.5776734E-01
       7.8338748E-01
       7.6386029E-01
       7.7736014E-01
       7.6852401E-01
       7.7665842E-01