# vtk DataFile Version 3.0
# Solution du M1 TR
ASCII
DATASET UNSTRUCTURED_GRID
POINTS   3280  float
0.0000000E+00  0.0000000E+00  0.1995332E+01
0.2000000E+01  0.0000000E+00  0.1000000E+00
0.2000000E+01  0.1000000E+01  0.1000000E+00
0.0000000E+00  0.1000000E+01  0.1994674E+01
0.1000000E+01  0.0000000E+00  0.4671040E+00
0.1000000E+01  0.1000000E+01  0.4429757E+00
0.1500000E+01  0.5000000E+00  0.1600002E+01
0.1500000E+01  0.0000000E+00  0.1000026E+00
0.1723284E+01  0.3570951E+00  0.1000000E+00
0.1500000E+01  0.2500000E+00  0.1000076E+00
0.1515103E+01  0.2763186E+00  0.1000044E+00
0.1594866E+01  0.2826386E+00  0.1000001E+00
0.1562500E+01  0.1875000E+00  0.1000003E+00
0.1534357E+01  0.1819434E+00  0.1000011E+00
0.1561083E+01  0.3343258E+00  0.4307843E+00
0.1750000E+01  0.0000000E+00  0.1000000E+00
0.1503267E+01  0.1622339E+00  0.1000052E+00
0.1514910E+01  0.2261192E+00  0.1000028E+00
0.1610795E+01  0.1290247E+00  0.1000000E+00
0.1539062E+01  0.1536458E+00  0.1000004E+00
0.1510772E+01  0.1982718E+00  0.1000035E+00
0.1541862E+01  0.2179813E+00  0.1000007E+00
0.1475030E+01  0.2178147E+00  0.1000259E+00
0.1539206E+01  0.2578835E+00  0.1000008E+00
0.1521085E+01  0.2465697E+00  0.1000020E+00
0.1496499E+01  0.2146241E+00  0.1000082E+00
0.1481433E+01  0.1870688E+00  0.1000163E+00
0.1586261E+01  0.1960616E+00  0.1000001E+00
0.1460896E+01  0.2899333E+00  0.1000562E+00
0.1542195E+01  0.2867649E+00  0.1000011E+00
0.1486080E+01  0.2754813E+00  0.1000148E+00
0.1536278E+01  0.3247610E+00  0.3990720E+00
0.1510131E+01  0.3295675E+00  0.5068866E+00
0.1455545E+01  0.2514402E+00  0.1000574E+00
0.1610995E+01  0.1909452E+00  0.1000000E+00
0.1564462E+01  0.2395252E+00  0.1000002E+00
0.1571524E+01  0.3026484E+00  0.1000002E+00
0.1613657E+01  0.2555806E+00  0.1000000E+00
0.1633998E+01  0.2714643E+00  0.1000000E+00
0.1534973E+01  0.3650914E+00  0.8716199E+00
0.1583157E+01  0.2286349E+00  0.1000001E+00
0.1586501E+01  0.1581416E+00  0.1000000E+00
0.1651985E+01  0.2274641E+00  0.1000000E+00
0.1619170E+01  0.2936434E+00  0.1000000E+00
0.1678889E+01  0.2641389E+00  0.1000000E+00
0.1642286E+01  0.2930521E+00  0.1000000E+00
0.1526415E+01  0.3446283E+00  0.6685726E+00
0.1662420E+01  0.3044259E+00  0.1000000E+00
0.1636786E+01  0.2469276E+00  0.1000000E+00
0.1588953E+01  0.3366240E+00  0.3023385E+00
0.1616427E+01  0.3314099E+00  0.1000000E+00
0.1598305E+01  0.3102698E+00  0.1000000E+00
0.1655410E+01  0.2614708E+00  0.1000000E+00
0.1487553E+01  0.3072167E+00  0.2005072E+00
0.1520126E+01  0.3036443E+00  0.1389808E+00
0.1477894E+01  0.2544664E+00  0.1000211E+00
0.1567847E+01  0.2133479E+00  0.1000002E+00
0.1663947E+01  0.3299725E+00  0.1000000E+00
0.1567022E+01  0.2696000E+00  0.1000002E+00
0.1678598E+01  0.3509559E+00  0.1000000E+00
0.1611933E+01  0.3827205E+00  0.6143694E+00
0.1640491E+01  0.3197373E+00  0.1000000E+00
0.1588015E+01  0.2526666E+00  0.1000001E+00
0.1708471E+01  0.3144917E+00  0.1000000E+00
0.1606944E+01  0.3564315E+00  0.3981668E+00
0.1604614E+01  0.2314093E+00  0.1000000E+00
0.1643491E+01  0.3631133E+00  0.1252149E+00
0.2000000E+01  0.5000000E+00  0.1000000E+00
0.1494727E+01  0.3621796E+00  0.8866730E+00
0.1701807E+01  0.3477237E+00  0.1000000E+00
0.1572156E+01  0.3701847E+00  0.7728080E+00
0.1688392E+01  0.3285111E+00  0.1000000E+00
0.1695932E+01  0.3904821E+00  0.1000000E+00
0.1636337E+01  0.3418163E+00  0.1000000E+00
0.1505941E+01  0.9448485E-01  0.1000037E+00
0.1423727E+01  0.1910920E+00  0.1002134E+00
0.1481447E+01  0.3359634E+00  0.5780686E+00
0.1441613E+01  0.3726133E+00  0.8637465E+00
0.1466699E+01  0.3599060E+00  0.8224666E+00
0.1476682E+01  0.4107296E+00  0.1280776E+01
0.1434448E+01  0.3273535E+00  0.3214097E+00
0.1464523E+01  0.3867258E+00  0.1071669E+01
0.1456903E+01  0.3373583E+00  0.5384890E+00
0.1454188E+01  0.3132491E+00  0.2135436E+00
0.1424069E+01  0.2919612E+00  0.1002534E+00
0.1490969E+01  0.3884111E+00  0.1129995E+01
0.1428051E+01  0.4202828E+00  0.1167783E+01
0.1513790E+01  0.3782958E+00  0.1037424E+01
0.1547789E+01  0.4092466E+00  0.1205500E+01
0.1535154E+01  0.3889763E+00  0.1091422E+01
0.1512699E+01  0.4170463E+00  0.1335905E+01
0.1441554E+01  0.3983607E+00  0.1084624E+01
0.1395941E+01  0.3853832E+00  0.7025990E+00
0.1420578E+01  0.3854393E+00  0.8716978E+00
0.1408336E+01  0.3518173E+00  0.4622970E+00
0.1549967E+01  0.3074339E+00  0.1158129E+00
0.1651639E+01  0.4114272E+00  0.4435190E+00
0.1668616E+01  0.3788978E+00  0.1000000E+00
0.1674624E+01  0.4027285E+00  0.1016705E+00
0.1706988E+01  0.4343785E+00  0.1000000E+00
0.1673984E+01  0.4357547E+00  0.3100769E+00
0.1695270E+01  0.4139894E+00  0.1000000E+00
0.1737273E+01  0.4034108E+00  0.1000000E+00
0.1645630E+01  0.3875965E+00  0.3309007E+00
0.1625874E+01  0.4052508E+00  0.6691852E+00
0.1627808E+01  0.4540126E+00  0.9081400E+00
0.1587158E+01  0.4136289E+00  0.1035381E+01
0.1633718E+01  0.4293591E+00  0.7423554E+00
0.1651607E+01  0.4466828E+00  0.6314699E+00
0.1605650E+01  0.4356658E+00  0.1026220E+01
0.1682168E+01  0.4808869E+00  0.3418536E+00
0.1671711E+01  0.4594749E+00  0.4327346E+00
0.1698428E+01  0.4596870E+00  0.1000000E+00
0.1646221E+01  0.4851828E+00  0.7899930E+00
0.1607747E+01  0.4151289E+00  0.8945281E+00
0.1584205E+01  0.4841185E+00  0.1324650E+01
0.1747573E+01  0.4622079E+00  0.1000000E+00
0.1568396E+01  0.4481495E+00  0.1323756E+01
0.1601760E+01  0.4629165E+00  0.1160111E+01
0.1723356E+01  0.4540167E+00  0.1000000E+00
0.1732897E+01  0.4294241E+00  0.1000000E+00
0.1722218E+01  0.4972746E+00  0.1000000E+00
0.1715121E+01  0.4754441E+00  0.1000000E+00
0.1584567E+01  0.4345797E+00  0.1171320E+01
0.1563465E+01  0.4258523E+00  0.1242787E+01
0.1534166E+01  0.4440258E+00  0.1438735E+01
0.1615090E+01  0.4918227E+00  0.1100779E+01
0.1717469E+01  0.4134541E+00  0.1000000E+00
0.1718488E+01  0.3909170E+00  0.1000000E+00
0.1741353E+01  0.3769080E+00  0.1000000E+00
0.1781199E+01  0.4241746E+00  0.1000000E+00
0.2000000E+01  0.2500000E+00  0.1000000E+00
0.1756308E+01  0.4199875E+00  0.1000000E+00
0.1762447E+01  0.3937207E+00  0.1000000E+00
0.1765097E+01  0.4438197E+00  0.1000000E+00
0.1807974E+01  0.4625425E+00  0.1000000E+00
0.1789176E+01  0.4471344E+00  0.1000000E+00
0.1514158E+01  0.1287364E+00  0.1000017E+00
0.1777674E+01  0.4803377E+00  0.1000000E+00
0.1811145E+01  0.4395021E+00  0.1000000E+00
0.1850404E+01  0.4566449E+00  0.1000000E+00
0.1748483E+01  0.3522599E+00  0.1000000E+00
0.1731235E+01  0.3304535E+00  0.1000000E+00
0.1777870E+01  0.3654441E+00  0.1000000E+00
0.1748149E+01  0.2821176E+00  0.1000000E+00
0.1732875E+01  0.3039003E+00  0.1000000E+00
0.1708314E+01  0.2807181E+00  0.1000000E+00
0.1767650E+01  0.3193756E+00  0.1000000E+00
0.1372661E+01  0.1704076E+00  0.1017989E+00
0.1411157E+01  0.2494459E+00  0.1005092E+00
0.1448000E+01  0.2246098E+00  0.1000995E+00
0.1360382E+01  0.2278583E+00  0.1028002E+00
0.1433680E+01  0.2431125E+00  0.1001872E+00
0.1388814E+01  0.2314916E+00  0.1010703E+00
0.1314549E+01  0.2124991E+00  0.1140533E+00
0.1404157E+01  0.2007613E+00  0.1006317E+00
0.1415035E+01  0.1072182E+00  0.1002848E+00
0.1520299E+01  0.1091515E+00  0.1000012E+00
0.1459010E+01  0.1690672E+00  0.1000548E+00
0.1436337E+01  0.2690050E+00  0.1001346E+00
0.1443480E+01  0.1263360E+00  0.1000992E+00
0.1625000E+01  0.0000000E+00  0.1000000E+00
0.1414954E+01  0.2197329E+00  0.1003405E+00
0.1335299E+01  0.2266424E+00  0.1068466E+00
0.1396801E+01  0.1612344E+00  0.1006131E+00
0.1792033E+01  0.3934232E+00  0.1000000E+00
0.1541310E+01  0.1264947E+00  0.1000004E+00
0.1483859E+01  0.1256971E+00  0.1000112E+00
0.1500341E+01  0.1139400E+00  0.1000043E+00
0.1498380E+01  0.1421255E+00  0.1000054E+00
0.1478242E+01  0.1468909E+00  0.1000182E+00
0.1453147E+01  0.1972183E+00  0.1000589E+00
0.1348833E+01  0.2067866E+00  0.1040606E+00
0.1368157E+01  0.2800764E+00  0.1026942E+00
0.1250000E+01  0.0000000E+00  0.1268100E+00
0.1496272E+01  0.2780308E-01  0.1000041E+00
0.1430228E+01  0.1622338E+00  0.1001586E+00
0.1544491E+01  0.1012427E+00  0.1000003E+00
0.1505524E+01  0.5428530E-01  0.1000034E+00
0.1576405E+01  0.1180891E+00  0.1000001E+00
0.1526885E+01  0.8834234E-01  0.1000010E+00
0.1558557E+01  0.6358195E-01  0.1000002E+00
0.1372206E+01  0.9428859E-01  0.1013467E+00
0.1414069E+01  0.8636887E-01  0.1003426E+00
0.1351230E+01  0.1581055E+00  0.1039198E+00
0.1371634E+01  0.2528708E+00  0.1025245E+00
0.1392978E+01  0.2694234E+00  0.1011594E+00
0.1321668E+01  0.2603105E+00  0.1126784E+00
0.1392566E+01  0.3027057E+00  0.1013267E+00
0.1345601E+01  0.2495441E+00  0.1056859E+00
0.1349996E+01  0.1827855E+00  0.1040291E+00
0.1475238E+01  0.9618066E-01  0.1000134E+00
0.1487372E+01  0.4556180E+00  0.1520161E+01
0.1432024E+01  0.3509343E+00  0.5936945E+00
0.1619231E+01  0.5383449E+00  0.1011762E+01
0.1532505E+01  0.4233173E+00  0.1339871E+01
0.1547332E+01  0.4788657E+00  0.1499238E+01
0.1627786E+01  0.4750493E+00  0.9643064E+00
0.1750658E+01  0.4911384E+00  0.1000000E+00
0.1783313E+01  0.5336292E+00  0.1000000E+00
0.1744147E+01  0.5299352E+00  0.1000000E+00
0.1772978E+01  0.5077787E+00  0.1000000E+00
0.1739682E+01  0.5092411E+00  0.1000000E+00
0.1715917E+01  0.5251974E+00  0.1000000E+00
0.1809547E+01  0.4999146E+00  0.1000000E+00
0.1486188E+01  0.5335558E+00  0.1550627E+01
0.1695320E+01  0.5058771E+00  0.1680790E+00
0.1793562E+01  0.5145404E+00  0.1000000E+00
0.1827482E+01  0.5355643E+00  0.1000000E+00
0.1805457E+01  0.5332234E+00  0.1000000E+00
0.1812320E+01  0.5734372E+00  0.1000000E+00
0.1794794E+01  0.5557356E+00  0.1000000E+00
0.1637325E+01  0.5533192E+00  0.7862073E+00
0.1761146E+01  0.5591762E+00  0.1000000E+00
0.1789115E+01  0.5788851E+00  0.1000000E+00
0.1693317E+01  0.6123782E+00  0.1000000E+00
0.1522396E+01  0.5359490E+00  0.1532729E+01
0.1814654E+01  0.6254783E+00  0.1000000E+00
0.1726166E+01  0.5505978E+00  0.1000000E+00
0.1691322E+01  0.5307786E+00  0.1918271E+00
0.1516987E+01  0.5143680E+00  0.1581438E+01
0.1661909E+01  0.5147686E+00  0.6087765E+00
0.1761865E+01  0.6508066E+00  0.1000000E+00
0.1692174E+01  0.5698207E+00  0.1000000E+00
0.1780214E+01  0.6037461E+00  0.1000000E+00
[...]
POINT_DATA    3280
SCALARS hauteur float
LOOKUP_TABLE DEFAULT
       1.8953322E+00
       9.9999999E-09
       9.9999999E-09
       1.8946744E+00
       3.6710398E-01
       3.4297566E-01
       2.3428020E-06
       2.6084272E-06
       9.9999999E-09
       7.5543055E-06
       4.3819723E-06
       5.7646025E-08
       2.7834981E-07
       1.0950478E-06
       3.2636965E-07
       9.9999999E-09
       5.2064703E-06
       2.8056263E-06
       9.9999999E-09
       4.1338314E-07
       3.4994429E-06
       7.3511156E-07
       2.5867616E-05
       8.3659165E-07
       2.0294129E-06
       8.2405237E-06
       1.6301274E-05
       5.3321639E-08
       5.6234751E-05
       1.1016263E-06
       1.4780287E-05
       1.5117860E-06
       6.5109093E-06
       5.7427966E-05
       9.9999999E-09
       2.2427263E-07
       2.2326822E-07
       1.5321877E-08
       9.9999999E-09
       3.0296547E-07
       6.4129022E-08
       4.1930108E-08
       9.9999999E-09
       1.1854190E-08
       9.9999999E-09
       9.9999999E-09
       1.5557018E-06
       9.9999999E-09
       9.9999999E-09
       5.0285191E-08
       1.0405299E-08
       4.2710347E-08
       9.9999999E-09
       1.8864244E-05
       4.0043391E-06
       2.1135116E-05
       1.7696950E-07
       9.9999999E-09
       2.4405399E-07
       9.9999999E-09
       9.9999999E-09
       9.9999999E-09
       6.1842246E-08
       9.9999999E-09
       9.9999999E-09
       1.5735864E-08
       9.9999999E-09
       9.9999999E-09
       8.0420759E-06
       9.9999999E-09
       3.8663297E-08
       9.9999999E-09
       9.9999999E-09
       9.9999999E-09
       3.6991579E-06
       2.1336653E-04
       2.6994666E-05
       1.1155029E-04
       4.0727138E-05
       1.0627282E-05
       3.0654220E-04
       3.1128059E-05
       1.0100728E-04
       9.1401980E-05
       2.5341563E-04
       6.7791083E-06
       2.1529986E-04
       1.6543744E-06
       6.1594620E-08
       2.9155493E-07
       1.6047561E-06
       1.1450338E-04
       1.2993226E-03
       3.9989514E-04
       8.1499189E-04
       8.9541583E-07
       9.9999999E-09
       9.9999999E-09
       9.9999999E-09
       9.9999999E-09
       9.9999999E-09
       9.9999999E-09
       9.9999999E-09
       9.9999999E-09
       9.9999999E-09
       9.9999999E-09
       9.9999999E-09
       9.9999999E-09
       9.9999999E-09
       9.9999999E-09
       9.9999999E-09
       9.9999999E-09
       9.9999999E-09
       9.9999999E-09
       9.9999999E-09
       9.9999999E-09
       9.9999999E-09
       9.9999999E-09
       9.9999999E-09
       9.9999999E-09
       9.9999999E-09
       9.9999999E-09
       9.9999999E-09
       9.9999999E-09
       2.9644482E-08
       1.6352614E-07
       9.9999999E-09
       9.9999999E-09
       9.9999999E-09
       9.9999999E-09
       9.9999999E-09
       9.9999999E-09
       9.9999999E-09
       9.9999999E-09
       9.9999999E-09
       9.9999999E-09
       9.9999999E-09
       1.7484364E-06
       9.9999999E-09
       9.9999999E-09
       9.9999999E-09
       9.9999999E-09
       9.9999999E-09
       9.9999999E-09
       9.9999999E-09
       9.9999999E-09
       9.9999999E-09
       9.9999999E-09
       1.7989350E-03
       5.0917445E-04
       9.9462706E-05
       2.8001576E-03
       1.8717352E-04
       1.0702514E-03
       1.4053304E-02
       6.3165277E-04
       2.8483230E-04
       1.2041549E-06
       5.4838553E-05
       1.3459401E-04
       9.9176507E-05
       9.9999999E-09
       3.4050661E-04
       6.8465970E-03
       6.1306280E-04
       9.9999999E-09
       3.9623212E-07
       1.1245852E-05
       4.3195397E-06
       5.4020715E-06
       1.8238857E-05
       5.8894498E-05
       4.0605854E-03
       2.6942335E-03
       2.6810003E-02
       4.1489758E-06
       1.5863476E-04
       2.7331019E-07
       3.4071076E-06
       7.7986442E-08
       1.0313763E-06
       2.0770810E-07
       1.3466727E-03
       3.4260165E-04
       3.9197805E-03
       2.5245010E-03
       1.1594473E-03
       1.2678367E-02
       1.3267287E-03
       5.6859051E-03
       4.0290544E-03
       1.3408292E-05
       7.3416300E-06
       2.4293570E-04
       9.9999999E-09
       2.8948713E-07
       4.4675884E-08
       9.9999999E-09
       9.9999999E-09
       9.9999999E-09
       9.9999999E-09
       9.9999999E-09
       9.9999999E-09
       9.9999999E-09
       9.9999999E-09
       5.4369810E-06
       9.9999999E-09
       9.9999999E-09
       9.9999999E-09
       9.9999999E-09
       9.9999999E-09
       9.9999999E-09
       9.9999999E-09
       9.9999999E-09
       9.9999999E-09
       9.9999999E-09
       4.9136636E-07
       9.9999999E-09
       9.9999999E-09
       9.9999999E-09
       6.5102313E-07
       9.9999999E-09
       9.9999999E-09
       9.9999999E-09
       9.9999999E-09
       1.1232549E-08
       9.9999999E-09
       9.9999999E-09
       9.9999999E-09
       9.9999999E-09
       9.9999999E-09
       9.9999999E-09
       9.9999999E-09
       9.9999999E-09
       9.9999999E-09
       9.9999999E-09
       9.9999999E-09
       9.9999999E-09
       9.9999999E-09
       9.9999999E-09
       9.9999999E-09
       9.9999999E-09
       9.9999999E-09
       9.9999999E-09
       9.9999999E-09
       9.9999999E-09
       9.9999999E-09
       9.9999999E-09
       9.9999999E-09
       9.9999999E-09
       1.5905747E-06
       1.6556128E-03
       2.3272514E-08
       1.0117072E-07
       1.8033506E-07
       1.6801366E-03
       9.9999999E-09
       6.9792279E-08
       4.3206445E-08
       9.0234087E-08
       9.9999999E-09
       5.0220165E-08
       1.7811331E-08
       9.9999999E-09
       9.9999999E-09
       9.9999999E-09
       9.9999999E-09
       9.9999999E-09
       9.9999999E-09
       9.9999999E-09
       9.9999999E-09
       9.9999999E-09
       9.9999999E-09
       1.1143404E-08
       9.8091320E-06
       3.2910721E-05
       4.6483954E-03
       5.2391207E-05
       1.6543012E-02
       8.4465537E-03
       1.7832881E-02
       7.6549169E-04
       1.2024341E-04
       6.4257617E-04
       2.5013825E-04
       3.7944311E-05
       6.4807977E-04
       1.3120402E-05
       6.6692641E-04
       7.0329773E-04
       1.7990716E-03
       2.3527191E-03
       4.6789009E-03
       6.4164149E-06
       1.2621954E-06
       3.8933305E-05
       2.2758271E-07
       3.1455006E-07
       9.9999999E-09
       7.1057490E-08
       9.9999999E-09
       3.4578643E-08
       9.9999999E-09
       9.9999999E-09
       9.9999999E-09
       9.9999999E-09
       9.9999999E-09
       9.9999999E-09
       9.9999999E-09
       9.9999999E-09
       9.9999999E-09
       9.9999999E-09
       9.9999999E-09
       9.9999999E-09
       9.9999999E-09
       9.9999999E-09
       9.9999999E-09
       9.9999999E-09
       9.9999999E-09
       9.9999999E-09
       9.9999999E-09
       9.9999999E-09
       9.9999999E-09
       9.9999999E-09
       9.9999999E-09
       9.9999999E-09
       9.9999999E-09
       9.9999999E-09
       9.9999999E-09
       9.9999999E-09
       9.9999999E-09
       9.9999999E-09
       9.9999999E-09
       2.7212337E-06
       9.9999999E-09
       9.9999999E-09
       9.9999999E-09
       3.2230086E-08
       9.9999999E-09
       9.9999999E-09
       9.9999999E-09
       9.9999999E-09
       9.9999999E-09
       9.9999999E-09
       9.9999999E-09
       9.9999999E-09
       9.9999999E-09
       9.9999999E-09
       9.9999999E-09
       9.9999999E-09
       9.9999999E-09
       9.9999999E-09
       9.9999999E-09
       9.9999999E-09
       9.9999999E-09
       9.9999999E-09
       9.9999999E-09
       1.4128090E-08
       3.4544029E-07
       1.8173433E-08
       9.9999999E-09
       9.9999999E-09
       9.9999999E-09
       9.9999999E-09
       9.5114823E-05
       4.3545566E-05
       8.6022095E-04
       5.4770692E-04
       5.0896848E-05
       1.5344539E-04
       1.8828706E-04
       1.0071963E-05
       4.7503248E-07
       1.3754261E-06
       7.5892927E-07
       3.9966879E-04
       8.9676023E-03
       2.8227854E-03
       5.9884545E-03
       1.2254666E-02
       6.3175557E-03
       1.2684210E-02
       3.9013291E-02
       2.2570143E-02
       4.3240695E-02
       2.4905863E-02
       3.5637036E-02
       8.5708413E-02
       5.6605921E-02
       7.5751289E-02
       6.1910396E-02
       4.6865377E-02
       2.0140333E-02
       1.0773801E-02
       4.9395489E-02
       2.7180687E-02
       3.7374223E-02
       8.3894338E-02
       6.0991780E-02
       2.8713222E-02
       4.9858444E-02
       1.6481606E-02
       8.7485880E-03
       2.7969794E-02
       3.8442914E-03
       1.1253453E-02
       8.3192029E-03
       5.8584826E-03
       4.2300827E-03
       9.5912894E-03
       2.8760058E-02
       1.8293410E-02
       2.1455369E-03
       1.7064747E-02
       2.4704534E-02
       3.4101233E-02
       2.0419714E-02
       4.1074512E-03
       6.3013411E-03
       7.8530169E-02
       2.5917187E-02
       8.4535860E-02
       4.9424382E-02
       5.7240280E-02
       7.5351407E-02
       1.3700207E-01
       1.1101545E-01
       1.2339993E-01
       4.2873468E-02
       7.2838893E-02
       1.3550065E-01
       1.0574613E-01
       1.3741770E-01
       4.5392551E-02
       2.0758337E-01
       3.7834347E-02
       1.7382060E-01
       1.3546386E-02
       8.1721236E-02
       1.6827876E-01
       1.8618544E-01
       1.9499540E-01
       2.5540836E-01
       2.3379286E-01
       2.4637446E-01
       1.8672797E-01
       2.6600151E-02
       5.8268417E-02
       2.1827688E-01
       2.1470313E-01
       2.2809205E-01
       2.9375968E-01
       2.7462452E-01
       2.1584638E-01
       2.9642930E-01
       1.9066922E-02
       3.7098359E-02
       2.5379019E-01
       2.3091447E-01
       2.5093295E-01
       2.7273478E-01
       2.9449926E-01
       5.8681884E-03
       3.7756383E-02
       3.3181951E-01
       2.3226622E-02
       7.9613847E-02
       3.0784312E-01
       3.3844524E-01
       4.4935629E-03
       6.1028664E-02
       9.1118831E-02
       3.1917176E-01
       3.7224258E-01
       3.5701597E-01
       4.0347358E-01
       3.9968593E-01
       1.0937436E-02
       5.0269524E-03
       1.4231106E-02
       7.8420907E-04
       1.5940671E-02
       2.2867131E-03
       3.2049071E-03
       1.5441562E-03
       3.6971192E-01
       4.7207341E-01
       8.3664293E-04
       3.7503928E-01
       3.7770956E-01
       4.3401785E-01
       4.3539867E-01
       1.8165874E-04
       1.2626390E-03
       4.2161278E-04
       4.1584195E-05
       1.8739818E-04
       1.7945236E-04
       3.6360411E-01
       3.2364390E-01
       4.0225653E-01
       4.0472949E-01
       4.1899136E-05
       7.6636222E-06
       3.0212974E-01
       4.6113016E-01
       4.4381661E-01
       3.6481308E-01
       1.6463960E-05
       5.1672696E-01
       3.6740529E-01
       3.2814808E-01
       9.6391281E-05
       4.7298862E-01
       4.9238954E-01
       4.9235919E-01
       5.4069241E-01
       4.5918147E-01
       5.3938900E-01
       5.0974089E-01
       4.9852872E-01
       4.9807117E-01
       4.8685714E-01
       4.4444781E-01
       4.2908267E-01
       5.5401989E-01
       5.3108465E-01
       5.8019987E-01
       5.1975406E-01
       5.3620329E-01
       5.1129060E-05
       9.9999999E-09
       9.9999999E-09
       9.9999999E-09
       9.9999999E-09
       9.9999999E-09
       9.9999999E-09
       9.9999999E-09
       9.9999999E-09
       9.9999999E-09
       9.9999999E-09
       9.9999999E-09
       9.9999999E-09
       9.9999999E-09
       9.9999999E-09
       9.9999999E-09
       9.9999999E-09
       9.9999999E-09
       9.9999999E-09
       9.9999999E-09
       9.9999999E-09
       9.9999999E-09
       9.9999999E-09
       9.9999999E-09
       9.9999999E-09
       9.9999999E-09
       4.0845700E-06
       9.9999999E-09
       9.9999999E-09
       9.9999999E-09
       9.9999999E-09
       9.9999999E-09
       9.9999999E-09
       1.1950916E-07
       1.0148993E-08
       1.7243459E-07
       4.0123265E-07
       2.5526673E-08
       7.8999354E-08
       9.9999999E-09
       1.4347096E-07
       8.0162488E-07
       1.1503988E-06
       2.2610935E-06
       9.6065923E-06
       4.9562801E-06
       9.9084770E-07
       6.5172596E-08
       2.6953314E-07
       4.0338178E-07
       5.0537426E-07
       7.9420801E-06
       1.8310386E-06
       1.0494311E-06
       2.8931087E-06
       8.8359955E-07
       4.1643981E-06
       6.6566339E-08
       4.2241599E-06
       4.4325107E-07
       2.0221316E-05
       1.2298339E-06
       9.1305404E-06
       3.0150682E-05
       2.8403461E-06
       2.2357066E-06
       1.2349775E-05
       1.4420816E-05
       2.5258651E-04
       7.5885492E-05
       3.8686028E-05
       2.0563391E-04
       8.1492810E-05
       3.9448655E-04
       1.4611196E-04
       5.8571361E-05
       1.0783877E-04
       5.3874601E-05
       1.1782998E-04
       2.1120487E-05
       9.3934815E-05
       9.0196220E-04
       3.1603003E-04
       6.2459269E-04
       9.9999999E-09
       9.9999999E-09
       9.9999999E-09
       9.9999999E-09
       9.9999999E-09
       9.9999999E-09
       9.9999999E-09
       9.9999999E-09
       9.9999999E-09
       9.9999999E-09
       9.9999999E-09
       9.9999999E-09
       9.9999999E-09
       9.9999999E-09
       9.9999999E-09
       9.9999999E-09
       9.9999999E-09
       9.9999999E-09
       9.9999999E-09
       9.9999999E-09
       9.9999999E-09
       9.9999999E-09
       9.9999999E-09
       9.9999999E-09
       9.9999999E-09
       9.9999999E-09
       9.9999999E-09
       9.9999999E-09
       9.9999999E-09
       9.9999999E-09
       9.9999999E-09
       9.9999999E-09
       9.9999999E-09
       9.9999999E-09
       9.9999999E-09
       9.9999999E-09
       9.9999999E-09
       9.9999999E-09
       1.6019317E-07
       1.4636005E-08
       9.9999999E-09
       9.9999999E-09
       9.9999999E-09
       2.8106488E-03
       7.8573599E-03
       5.7103373E-05
       4.5101172E-05
       1.7316009E-04
       2.0565562E-05
       1.1911915E-05
       1.1564424E-06
       8.4268987E-03
       4.4828390E-02
       9.4610889E-02
       6.9131023E-02
       7.0104325E-02
       1.2234024E-01
       9.8517137E-02
       7.9444829E-02
       1.3256504E-01
       1.3050209E-01
       9.8097902E-02
       1.5437969E-01
       8.9819820E-02
       1.9996445E-01
       5.6945773E-02
       8.9019175E-02
       1.6403301E-01
       1.1500040E-01
       1.2202567E-01
       1.0433759E-01
       4.3179059E-03
       6.4355563E-02
       4.3783330E-02
       1.6674051E-01
       1.8891578E-01
       1.5106194E-02
       9.7771538E-03
       1.4360137E-02
       1.0963286E-01
       1.5131020E-01
       9.9689531E-03
       6.7256537E-02
       1.5955726E-01
       1.3816505E-01
       3.3959729E-01
       2.6781163E-01
       4.2935945E-01
       5.0069825E-01
       5.7828973E-01
       5.3387178E-01
       5.4420776E-01
       6.0482638E-01
       5.8492611E-01
       5.5999974E-01
       6.3171750E-01
       5.8097222E-01
       5.2383279E-01
       4.2974907E-01
       4.1748157E-01
       4.5996058E-01
       4.7204179E-01
       4.0978808E-01
       3.8948031E-01
       4.2481098E-01
       5.7556886E-01
       6.2886944E-01
       9.9999999E-09
       9.9999999E-09
       9.9999999E-09
       9.9999999E-09
       9.9999999E-09
       9.9999999E-09
       9.9999999E-09
       9.9999999E-09
       9.9999999E-09
       1.9537432E-06
       6.6509039E-05
       4.3915906E-05
       9.9999999E-09
       9.9999999E-09
       1.8265304E-08
       4.5892618E-06
       3.4546627E-06
       3.4103795E-05
       6.5637542E-05
       1.8188029E-03
       9.9999999E-09
       9.9999999E-09
       9.9999999E-09
       9.9999999E-09
       9.9999999E-09
       9.9999999E-09
       9.9999999E-09
       9.9999999E-09
       9.9999999E-09
       9.9999999E-09
       9.9999999E-09
       9.9999999E-09
       9.9999999E-09
       9.9999999E-09
       9.9999999E-09
       9.9999999E-09
       9.9999999E-09
       9.9999999E-09
       9.9999999E-09
       9.9999999E-09
       9.9999999E-09
       1.1874393E-08
       2.1495614E-08
       2.1030782E-08
       1.1208448E-07
       1.0129301E-07
       9.9999999E-09
       9.9999999E-09
       9.9999999E-09
       9.9999999E-09
       9.9999999E-09
       9.9999999E-09
       9.9999999E-09
       9.9999999E-09
       9.9999999E-09
       9.9999999E-09
       9.9999999E-09
       9.9999999E-09
       9.9999999E-09
       9.9999999E-09
       9.9999999E-09
       9.9999999E-09
       9.9999999E-09
       9.9999999E-09
       9.9999999E-09
       9.9999999E-09
       9.9999999E-09
       9.9999999E-09
       9.9999999E-09
       9.9999999E-09
       9.9999999E-09
       9.9999999E-09
       9.9999999E-09
       9.9999999E-09
       5.3595571E-08
       1.0890649E-08
       3.2545993E-08
       9.9999999E-09
       9.9999999E-09
       9.9999999E-09
       9.9999999E-09
       9.9999999E-09
       9.9999999E-09
       9.9999999E-09
       9.9999999E-09
       9.9999999E-09
       9.9999999E-09
       3.4237885E-02
       3.8871168E-02
       1.2026530E-02
       2.5954875E-02
       3.2733122E-02
       1.5167558E-02
       2.4708541E-02
       6.3329918E-02
       1.5703617E-01
       1.1423217E-01
       1.2209394E-01
       1.3759254E-01
       1.3145525E-01
       1.6623947E-01
       1.0439433E-01
       1.0809336E-01
       1.4457771E-01
       1.1751547E-01
       3.4536476E-01
       5.6749462E-01
       9.2824824E-01
       1.0411222E+00
       5.3471060E-01
       7.5926410E-01
       6.8663715E-01
       7.2276089E-01
       7.2320752E-01
       6.4138329E-01
       8.2374114E-01
       6.0492205E-01
       7.5776963E-01
       8.6572630E-01
       6.2779808E-01
       2.7812926E-01
       8.2660368E-01
       7.7354732E-01
       6.4193783E-01
       6.2761753E-01
       6.7044051E-01
       8.3543872E-01
       6.9751486E-01
       4.8309211E-01
       6.7121356E-01
       5.5298170E-01
       8.3021704E-01
       6.3089827E-01
       7.4371646E-01
       7.0436063E-01
       7.2732322E-01
       6.7722168E-01
       7.5441349E-01
       6.7966321E-01
       7.3145169E-01
       6.9974847E-01
       5.6311567E-01
       6.9887981E-01
       7.7744160E-01
       6.0512991E-01
       6.7322208E-01
       1.3403227E+00
       8.5960848E-01
       8.3249300E-01
       8.9314052E-01
       7.2613456E-01
       8.2866178E-01
       5.1388144E-01
       5.3080604E-01
       8.4907345E-01
       8.7330759E-01
       8.7751577E-01
       9.5885957E-01
       8.3457306E-01
       8.0247486E-01
       7.5036227E-01
       4.9021600E-01
       6.5167032E-01
       5.9226327E-01
       6.2222262E-01
       7.1257925E-01
       7.5294819E-01
       6.0633696E-01
       5.7501339E-01
       3.5296438E-01
       7.0229059E-01
       1.0519544E+00
       6.7829645E-01
       7.8836837E-01
       4.1451305E-01
       7.9712517E-01
       4.4982774E-01
       4.6029773E-01
       4.4753568E-01
       3.8731466E-01
       3.9221191E-01
       3.2169624E-01
       3.7992455E-01
       3.3638119E-01
       2.9235507E-01
       2.8818712E-01
       3.1428702E-01
       2.6120837E-01
       3.3023347E-01
       2.5314456E-01
       2.7840740E-01
       2.9129810E-01
       2.4565894E-01
       2.6118315E-01
       2.2195091E-01
       1.9654182E-01
       1.9001910E-01
       2.2186331E-01
       2.5184777E-01
       2.5355534E-01
       1.6024250E-01
       2.2134771E-01
       3.9995474E-01
       4.5320102E-01
       3.7627214E-01
       4.5201179E-01
       5.8247347E-01
       5.9350014E-01
       5.7280270E-01
       5.9832208E-01
       5.7509315E-01
       5.4320954E-01
       6.0935402E-01
       5.6562353E-01
       6.7999014E-01
       5.8368901E-01
       6.6118534E-01
       6.3634800E-01
       7.0469033E-01
       6.1155964E-01
       6.6128900E-01
       6.3474757E-01
       5.9948453E-01
       6.7815721E-01
       6.1752101E-01
       6.6635724E-01
       6.2416460E-01
       6.5520613E-01