# vtk DataFile Version 3.0
# Solution du M1 TR
ASCII
DATASET UNSTRUCTURED_GRID
POINTS   3280  float
0.0000000E+00  0.0000000E+00  0.1195153E+01
0.2000000E+01  0.0000000E+00  0.5986060E+00
0.2000000E+01  0.1000000E+01  0.5853455E+00
0.0000000E+00  0.1000000E+01  0.1205107E+01
0.1000000E+01  0.0000000E+00  0.8349132E+00
0.1000000E+01  0.1000000E+01  0.8385458E+00
0.1500000E+01  0.5000000E+00  0.1614790E+01
0.1500000E+01  0.0000000E+00  0.9827531E+00
0.1723284E+01  0.3570951E+00  0.1669575E+00
0.1500000E+01  0.2500000E+00  0.9427307E+00
0.1515103E+01  0.2763186E+00  0.8227539E+00
0.1594866E+01  0.2826386E+00  0.5822163E+00
0.1562500E+01  0.1875000E+00  0.8870709E+00
0.1534357E+01  0.1819434E+00  0.9351763E+00
0.1561083E+01  0.3343258E+00  0.6301934E+00
0.1750000E+01  0.0000000E+00  0.7744984E+00
0.1503267E+01  0.1622339E+00  0.9823611E+00
0.1514910E+01  0.2261192E+00  0.9355231E+00
0.1610795E+01  0.1290247E+00  0.8567092E+00
0.1539062E+01  0.1536458E+00  0.9344333E+00
0.1510772E+01  0.1982718E+00  0.9580058E+00
0.1541862E+01  0.2179813E+00  0.8917846E+00
0.1475030E+01  0.2178147E+00  0.1011754E+01
0.1539206E+01  0.2578835E+00  0.8169314E+00
0.1521085E+01  0.2465697E+00  0.8891170E+00
0.1496499E+01  0.2146241E+00  0.9750443E+00
0.1481433E+01  0.1870688E+00  0.1008777E+01
0.1586261E+01  0.1960616E+00  0.8323432E+00
0.1460896E+01  0.2899333E+00  0.9466557E+00
0.1542195E+01  0.2867649E+00  0.6890070E+00
0.1486080E+01  0.2754813E+00  0.9052606E+00
0.1536278E+01  0.3247610E+00  0.7139198E+00
0.1510131E+01  0.3295675E+00  0.8848717E+00
0.1455545E+01  0.2514402E+00  0.1029037E+01
0.1610995E+01  0.1909452E+00  0.7842176E+00
0.1564462E+01  0.2395252E+00  0.8089252E+00
0.1571524E+01  0.3026484E+00  0.4989288E+00
0.1613657E+01  0.2555806E+00  0.6402932E+00
0.1633998E+01  0.2714643E+00  0.5499759E+00
0.1534973E+01  0.3650914E+00  0.9349498E+00
0.1583157E+01  0.2286349E+00  0.7986850E+00
0.1586501E+01  0.1581416E+00  0.8725874E+00
0.1651985E+01  0.2274641E+00  0.6669763E+00
0.1619170E+01  0.2936434E+00  0.4605832E+00
0.1678889E+01  0.2641389E+00  0.4922809E+00
0.1642286E+01  0.2930521E+00  0.4568784E+00
0.1526415E+01  0.3446283E+00  0.8416109E+00
0.1662420E+01  0.3044259E+00  0.4041310E+00
0.1636786E+01  0.2469276E+00  0.6529438E+00
0.1588953E+01  0.3366240E+00  0.4437245E+00
0.1616427E+01  0.3314099E+00  0.2768161E+00
0.1598305E+01  0.3102698E+00  0.3960834E+00
0.1655410E+01  0.2614708E+00  0.5483138E+00
0.1487553E+01  0.3072167E+00  0.8506960E+00
0.1520126E+01  0.3036443E+00  0.6741080E+00
0.1477894E+01  0.2544664E+00  0.9804529E+00
0.1567847E+01  0.2133479E+00  0.8467894E+00
0.1663947E+01  0.3299725E+00  0.2404986E+00
0.1567022E+01  0.2696000E+00  0.7021915E+00
0.1678598E+01  0.3509559E+00  0.1558945E+00
0.1611933E+01  0.3827205E+00  0.6217605E+00
0.1640491E+01  0.3197373E+00  0.3358197E+00
0.1588015E+01  0.2526666E+00  0.7238434E+00
0.1708471E+01  0.3144917E+00  0.3213338E+00
0.1606944E+01  0.3564315E+00  0.4399355E+00
0.1604614E+01  0.2314093E+00  0.7514579E+00
0.1643491E+01  0.3631133E+00  0.1543387E+00
0.2000000E+01  0.5000000E+00  0.1040283E+00
0.1494727E+01  0.3621796E+00  0.1116561E+01
0.1701807E+01  0.3477237E+00  0.1960016E+00
0.1572156E+01  0.3701847E+00  0.8032255E+00
0.1688392E+01  0.3285111E+00  0.2755861E+00
0.1695932E+01  0.3904821E+00  0.1195466E+00
0.1636337E+01  0.3418163E+00  0.2038927E+00
0.1505941E+01  0.9448485E-01  0.9948568E+00
0.1423727E+01  0.1910920E+00  0.1074958E+01
0.1481447E+01  0.3359634E+00  0.1022876E+01
0.1441613E+01  0.3726133E+00  0.1238248E+01
0.1466699E+01  0.3599060E+00  0.1144386E+01
0.1476682E+01  0.4107296E+00  0.1384789E+01
0.1434448E+01  0.3273535E+00  0.1089740E+01
0.1464523E+01  0.3867258E+00  0.1287368E+01
0.1456903E+01  0.3373583E+00  0.1076020E+01
0.1454188E+01  0.3132491E+00  0.9363244E+00
0.1424069E+01  0.2919612E+00  0.1014893E+01
0.1490969E+01  0.3884111E+00  0.1265182E+01
0.1428051E+01  0.4202828E+00  0.1455444E+01
0.1513790E+01  0.3782958E+00  0.1138108E+01
0.1547789E+01  0.4092466E+00  0.1214169E+01
0.1535154E+01  0.3889763E+00  0.1121468E+01
0.1512699E+01  0.4170463E+00  0.1384564E+01
0.1441554E+01  0.3983607E+00  0.1380399E+01
0.1395941E+01  0.3853832E+00  0.1411756E+01
0.1420578E+01  0.3854393E+00  0.1362788E+01
0.1408336E+01  0.3518173E+00  0.1248837E+01
0.1549967E+01  0.3074339E+00  0.5335293E+00
0.1651639E+01  0.4114272E+00  0.4441977E+00
0.1668616E+01  0.3788978E+00  0.1134716E+00
0.1674624E+01  0.4027285E+00  0.1044710E+00
0.1706988E+01  0.4343785E+00  0.1008399E+00
0.1673984E+01  0.4357547E+00  0.3106315E+00
0.1695270E+01  0.4139894E+00  0.1027017E+00
0.1737273E+01  0.4034108E+00  0.1128271E+00
0.1645630E+01  0.3875965E+00  0.3357804E+00
0.1625874E+01  0.4052508E+00  0.6701319E+00
0.1627808E+01  0.4540126E+00  0.9087713E+00
0.1587158E+01  0.4136289E+00  0.1036981E+01
0.1633718E+01  0.4293591E+00  0.7429360E+00
0.1651607E+01  0.4466828E+00  0.6319387E+00
0.1605650E+01  0.4356658E+00  0.1027001E+01
0.1682168E+01  0.4808869E+00  0.3421978E+00
0.1671711E+01  0.4594749E+00  0.4331175E+00
0.1698428E+01  0.4596870E+00  0.1003641E+00
0.1646221E+01  0.4851828E+00  0.7904506E+00
0.1607747E+01  0.4151289E+00  0.8956047E+00
0.1584205E+01  0.4841185E+00  0.1325575E+01
0.1747573E+01  0.4622079E+00  0.1004406E+00
0.1568396E+01  0.4481495E+00  0.1325177E+01
0.1601760E+01  0.4629165E+00  0.1160950E+01
0.1723356E+01  0.4540167E+00  0.1005133E+00
0.1732897E+01  0.4294241E+00  0.1021227E+00
0.1722218E+01  0.4972746E+00  0.1003184E+00
0.1715121E+01  0.4754441E+00  0.1003218E+00
0.1584567E+01  0.4345797E+00  0.1172482E+01
0.1563465E+01  0.4258523E+00  0.1245820E+01
0.1534166E+01  0.4440258E+00  0.1444442E+01
0.1615090E+01  0.4918227E+00  0.1101432E+01
0.1717469E+01  0.4134541E+00  0.1059978E+00
0.1718488E+01  0.3909170E+00  0.1227035E+00
0.1741353E+01  0.3769080E+00  0.1429612E+00
0.1781199E+01  0.4241746E+00  0.1090607E+00
0.2000000E+01  0.2500000E+00  0.3883826E+00
0.1756308E+01  0.4199875E+00  0.1066658E+00
0.1762447E+01  0.3937207E+00  0.1232444E+00
0.1765097E+01  0.4438197E+00  0.1014052E+00
0.1807974E+01  0.4625425E+00  0.1010754E+00
0.1789176E+01  0.4471344E+00  0.1012424E+00
0.1514158E+01  0.1287364E+00  0.9766346E+00
0.1777674E+01  0.4803377E+00  0.1004416E+00
0.1811145E+01  0.4395021E+00  0.1053541E+00
0.1850404E+01  0.4566449E+00  0.1032580E+00
0.1748483E+01  0.3522599E+00  0.2004645E+00
0.1731235E+01  0.3304535E+00  0.2539682E+00
0.1777870E+01  0.3654441E+00  0.1699538E+00
0.1748149E+01  0.2821176E+00  0.4136512E+00
0.1732875E+01  0.3039003E+00  0.3563216E+00
0.1708314E+01  0.2807181E+00  0.4265330E+00
0.1767650E+01  0.3193756E+00  0.2822841E+00
0.1372661E+01  0.1704076E+00  0.1099186E+01
0.1411157E+01  0.2494459E+00  0.1108700E+01
0.1448000E+01  0.2246098E+00  0.1058390E+01
0.1360382E+01  0.2278583E+00  0.1138706E+01
0.1433680E+01  0.2431125E+00  0.1076949E+01
0.1388814E+01  0.2314916E+00  0.1124251E+01
0.1314549E+01  0.2124991E+00  0.1129681E+01
0.1404157E+01  0.2007613E+00  0.1102705E+01
0.1415035E+01  0.1072182E+00  0.1058996E+01
0.1520299E+01  0.1091515E+00  0.9733670E+00
0.1459010E+01  0.1690672E+00  0.1044442E+01
0.1436337E+01  0.2690050E+00  0.1044863E+01
0.1443480E+01  0.1263360E+00  0.1054243E+01
0.1625000E+01  0.0000000E+00  0.8884347E+00
0.1414954E+01  0.2197329E+00  0.1091763E+01
0.1335299E+01  0.2266424E+00  0.1140112E+01
0.1396801E+01  0.1612344E+00  0.1082329E+01
0.1792033E+01  0.3934232E+00  0.1316293E+00
0.1541310E+01  0.1264947E+00  0.9469215E+00
0.1483859E+01  0.1256971E+00  0.1014278E+01
0.1500341E+01  0.1139400E+00  0.9975943E+00
0.1498380E+01  0.1421255E+00  0.9940612E+00
0.1478242E+01  0.1468909E+00  0.1020264E+01
0.1453147E+01  0.1972183E+00  0.1044292E+01
0.1348833E+01  0.2067866E+00  0.1128240E+01
0.1368157E+01  0.2800764E+00  0.1170460E+01
0.1250000E+01  0.0000000E+00  0.8437788E+00
0.1496272E+01  0.2780308E-01  0.9917517E+00
0.1430228E+01  0.1622338E+00  0.1065208E+01
0.1544491E+01  0.1012427E+00  0.9488315E+00
0.1505524E+01  0.5428530E-01  0.9911772E+00
0.1576405E+01  0.1180891E+00  0.9189164E+00
0.1526885E+01  0.8834234E-01  0.9719093E+00
0.1558557E+01  0.6358195E-01  0.9462407E+00
0.1372206E+01  0.9428859E-01  0.1037593E+01
0.1414069E+01  0.8636887E-01  0.1046256E+01
0.1351230E+01  0.1581055E+00  0.1091332E+01
0.1371634E+01  0.2528708E+00  0.1154903E+01
0.1392978E+01  0.2694234E+00  0.1137083E+01
0.1321668E+01  0.2603105E+00  0.1169923E+01
0.1392566E+01  0.3027057E+00  0.1139550E+01
0.1345601E+01  0.2495441E+00  0.1159406E+01
0.1349996E+01  0.1827855E+00  0.1113024E+01
0.1475238E+01  0.9618066E-01  0.1018854E+01
0.1487372E+01  0.4556180E+00  0.1564817E+01
0.1432024E+01  0.3509343E+00  0.1152737E+01
0.1619231E+01  0.5383449E+00  0.1012447E+01
0.1532505E+01  0.4233173E+00  0.1352089E+01
0.1547332E+01  0.4788657E+00  0.1501401E+01
0.1627786E+01  0.4750493E+00  0.9648736E+00
0.1750658E+01  0.4911384E+00  0.1003074E+00
0.1783313E+01  0.5336292E+00  0.1004212E+00
0.1744147E+01  0.5299352E+00  0.1003501E+00
0.1772978E+01  0.5077787E+00  0.1003250E+00
0.1739682E+01  0.5092411E+00  0.1003192E+00
0.1715917E+01  0.5251974E+00  0.1003404E+00
0.1809547E+01  0.4999146E+00  0.1004070E+00
0.1486188E+01  0.5335558E+00  0.1574244E+01
0.1695320E+01  0.5058771E+00  0.1684184E+00
0.1793562E+01  0.5145404E+00  0.1003591E+00
0.1827482E+01  0.5355643E+00  0.1005802E+00
0.1805457E+01  0.5332234E+00  0.1006445E+00
0.1812320E+01  0.5734372E+00  0.1070064E+00
0.1794794E+01  0.5557356E+00  0.1013945E+00
0.1637325E+01  0.5533192E+00  0.7866999E+00
0.1761146E+01  0.5591762E+00  0.1006889E+00
0.1789115E+01  0.5788851E+00  0.1080272E+00
0.1693317E+01  0.6123782E+00  0.1063148E+00
0.1522396E+01  0.5359490E+00  0.1538998E+01
0.1814654E+01  0.6254783E+00  0.1587247E+00
0.1726166E+01  0.5505978E+00  0.1003919E+00
0.1691322E+01  0.5307786E+00  0.1921853E+00
0.1516987E+01  0.5143680E+00  0.1587324E+01
0.1661909E+01  0.5147686E+00  0.6091830E+00
0.1761865E+01  0.6508066E+00  0.1948036E+00
0.1692174E+01  0.5698207E+00  0.1004952E+00
0.1780214E+01  0.6037461E+00  0.1204918E+00
[...]
POINT_DATA    3280
SCALARS hauteur float
LOOKUP_TABLE DEFAULT
       1.0951534E+00
       4.9860603E-01
       4.8534554E-01
       1.1051073E+00
       7.3491318E-01
       7.3854577E-01
       1.4790102E-02
       8.8275309E-01
       6.6957466E-02
       8.4273068E-01
       7.2275390E-01
       4.8221631E-01
       7.8707092E-01
       8.3517625E-01
       1.9940944E-01
       6.7449844E-01
       8.8236109E-01
       8.3552315E-01
       7.5670920E-01
       8.3443329E-01
       8.5800580E-01
       7.9178458E-01
       9.1175354E-01
       7.1693135E-01
       7.8911697E-01
       8.7504430E-01
       9.0877724E-01
       7.3234318E-01
       8.4665568E-01
       5.8900695E-01
       8.0526061E-01
       3.1484936E-01
       3.7799160E-01
       9.2903652E-01
       6.8421760E-01
       7.0892522E-01
       3.9892885E-01
       5.4029321E-01
       4.4997586E-01
       6.3330183E-02
       6.9868497E-01
       7.7258740E-01
       5.6697628E-01
       3.6058319E-01
       3.9228092E-01
       3.5687840E-01
       1.7303982E-01
       3.0413103E-01
       5.5294383E-01
       1.4138607E-01
       1.7681607E-01
       2.9608337E-01
       4.4831382E-01
       6.5020768E-01
       5.3513123E-01
       8.8045293E-01
       7.4678936E-01
       1.4049862E-01
       6.0219152E-01
       5.5894527E-02
       7.3911821E-03
       2.3581972E-01
       6.2384341E-01
       2.2133381E-01
       4.1768678E-02
       6.5145793E-01
       2.9123874E-02
       4.0283263E-03
       2.2989647E-01
       9.6001566E-02
       3.0417533E-02
       1.7558609E-01
       1.9546584E-02
       1.0389268E-01
       8.9485683E-01
       9.7495771E-01
       4.4483450E-01
       3.7461262E-01
       3.2195974E-01
       1.0402367E-01
       7.6863724E-01
       2.1573001E-01
       5.3763163E-01
       7.2287213E-01
       9.1489330E-01
       1.3519408E-01
       2.8787717E-01
       1.0068574E-01
       8.6684189E-03
       3.0046124E-02
       4.8660320E-02
       2.9588975E-01
       7.1045639E-01
       4.9149002E-01
       7.8735527E-01
       4.1771729E-01
       6.7878808E-04
       1.3471550E-02
       2.8005044E-03
       8.3987811E-04
       5.5464004E-04
       2.7016657E-03
       1.2827079E-02
       4.8797513E-03
       9.4668399E-04
       6.3132204E-04
       1.6008072E-03
       5.8064636E-04
       4.6887146E-04
       7.8078770E-04
       3.4426410E-04
       3.8296096E-04
       3.6414238E-04
       4.5764736E-04
       1.0766331E-03
       9.2536590E-04
       4.4056692E-04
       1.4215183E-03
       8.3910845E-04
       5.1328669E-04
       2.1226684E-03
       3.1841645E-04
       3.2178501E-04
       1.1620441E-03
       3.0333403E-03
       5.7071724E-03
       6.5252176E-04
       5.9977762E-03
       2.2703520E-02
       4.2961158E-02
       9.0607402E-03
       2.8838262E-01
       6.6657589E-03
       2.3244365E-02
       1.4052250E-03
       1.0754204E-03
       1.2423998E-03
       8.7663460E-01
       4.4156525E-04
       5.3541146E-03
       3.2579917E-03
       1.0046451E-01
       1.5396815E-01
       6.9953766E-02
       3.1365118E-01
       2.5632158E-01
       3.2653296E-01
       1.8228411E-01
       9.9918630E-01
       1.0087002E+00
       9.5838963E-01
       1.0387056E+00
       9.7694906E-01
       1.0242505E+00
       1.0296807E+00
       1.0027047E+00
       9.5899560E-01
       8.7336699E-01
       9.4444158E-01
       9.4486275E-01
       9.5424327E-01
       7.8843468E-01
       9.9176275E-01
       1.0401118E+00
       9.8232926E-01
       3.1629305E-02
       8.4692146E-01
       9.1427803E-01
       8.9759428E-01
       8.9406120E-01
       9.2026394E-01
       9.4429231E-01
       1.0282399E+00
       1.0704596E+00
       7.4377884E-01
       8.9175171E-01
       9.6520785E-01
       8.4883146E-01
       8.9117724E-01
       8.1891637E-01
       8.7190928E-01
       8.4624066E-01
       9.3759262E-01
       9.4625570E-01
       9.9133210E-01
       1.0549028E+00
       1.0370832E+00
       1.0699231E+00
       1.0395503E+00
       1.0594057E+00
       1.0130243E+00
       9.1885396E-01
       4.4663381E-02
       5.5928494E-01
       6.8479091E-04
       1.2218761E-02
       2.1638946E-03
       5.6715236E-04
       3.0738506E-04
       4.2115103E-04
       3.5007727E-04
       3.2503512E-04
       3.1919873E-04
       3.4043603E-04
       4.0700012E-04
       2.3622441E-02
       3.3943440E-04
       3.5912670E-04
       5.8016673E-04
       6.4452247E-04
       7.0064326E-03
       1.3945159E-03
       4.9261928E-04
       6.8892942E-04
       8.0271889E-03
       6.3147825E-03
       6.2698205E-03
       5.8724688E-02
       3.9190625E-04
       3.5825626E-04
       5.8864974E-03
       4.0647528E-04
       9.4803569E-02
       4.9515118E-04
       2.0491788E-02
       1.3719822E-03
       3.9626639E-04
       8.6765285E-03
       9.9615342E-04
       3.0726777E-01
       2.1794459E-02
       6.0540403E-02
       2.1902438E-01
       3.2015718E-01
       1.3418205E-01
       3.2914804E-01
       1.0322904E-01
       3.3106382E-01
       1.4163414E-01
       1.3145509E-01
       3.5854477E-02
       2.9401207E-01
       4.7168449E-01
       1.8041802E-02
       4.8943445E-02
       2.1518664E-02
       3.8267215E-02
       6.3266139E-02
       1.3329537E-01
       1.2122495E-01
       8.6312876E-01
       1.0180293E+00
       7.8236050E-01
       8.1224000E-01
       7.9889108E-01
       9.7746900E-01
       7.8680156E-01
       8.2721162E-01
       8.1780774E-01
       8.4119757E-01
       7.9028892E-01
       8.3035723E-01
       7.9386070E-01
       7.5650951E-01
       7.3616949E-01
       6.8426315E-01
       7.5207955E-01
       7.2593222E-01
       7.8040566E-01
       7.3306091E-01
       7.1569663E-01
       6.8485633E-01
       7.1973381E-01
       7.3448690E-01
       9.1008210E-01
       9.3455029E-01
       9.6114421E-01
       9.4493778E-01
       9.6953222E-01
       9.7234684E-01
       9.0474949E-01
       9.9701078E-01
       9.4383153E-01
       8.5787200E-01
       9.6826366E-01
       9.2797935E-01
       9.7160502E-01
       9.1064711E-01
       1.0076574E+00
       9.4215019E-01
       1.0173307E+00
       9.4808644E-01
       1.1087495E+00
       5.4856540E-02
       1.8875079E-02
       1.1629076E-01
       6.1542691E-03
       4.3762658E-03
       9.7171116E-04
       2.2039444E-03
       5.0896060E-04
       2.6112251E-03
       1.3318434E-03
       4.9084654E-04
       7.9542638E-04
       4.8150682E-04
       3.5701703E-04
       3.8812764E-04
       9.4513770E-02
       2.5986284E-02
       5.3474503E-04
       1.0067371E-03
       2.2885516E-01
       1.1148580E-01
       1.6363711E-01
       5.4772929E-02
       1.7020995E-01
       2.4155296E-01
       1.3079103E-01
       1.0280797E-01
       2.2036270E-01
       2.6795585E-01
       2.0158655E-01
       1.8077175E-01
       2.8028341E-01
       6.0730547E-02
       9.0940329E-02
       6.6373427E-01
       3.5560895E-02
       2.3428412E-01
       2.7178046E-01
       2.2385079E-01
       2.2108578E-03
       8.8422042E-01
       7.5124861E-04
       1.3049292E-01
       3.8566293E-01
       1.7347358E-03
       9.9630889E-02
       1.6097197E-01
       3.2019803E-01
       4.1128959E-01
       1.3237055E-01
       4.2995808E-02
       4.4509322E-01
       4.7741212E-01
       5.4457484E-01
       4.0416822E-01
       4.5620385E-01
       4.8833299E-01
       3.8018415E-01
       5.1492635E-01
       4.3147280E-01
       1.4191602E-01
       5.2441791E-03
       1.2433349E-01
       3.0985950E-01
       8.0621555E-01
       8.6204988E-01
       8.1489779E-01
       7.8463725E-01
       7.5891909E-01
       6.0116251E-01
       6.3298468E-01
       9.4795049E-01
       9.3655458E-01
       9.5755931E-01
       9.2723446E-01
       8.9436003E-01
       9.3206568E-01
       8.8116260E-01
       8.9248485E-01
       8.6386273E-01
       8.7956041E-01
       8.6872443E-01
       9.9687244E-01
       1.0302293E+00
       1.0786398E+00
       1.1034024E+00
       1.1260978E+00
       1.0809868E+00
       1.0977852E+00
       1.0745528E+00
       1.1014160E+00
       1.1245745E+00
       1.0668977E+00
       1.1047795E+00
       1.0402405E+00
       1.0833902E+00
       9.9973584E-01
       1.0415418E+00
       1.0345879E+00
       1.0437023E+00
       1.0505795E+00
       9.6396378E-01
       1.0086826E+00
       1.0199704E+00
       9.3096839E-01
       9.8924310E-01
       9.6820918E-01
       8.6374677E-01
       1.0026786E+00
       1.0006714E+00
       9.1895522E-01
       1.0898149E+00
       1.1636648E+00
       1.1401447E+00
       1.1072285E+00
       9.4402780E-01
       1.1319495E+00
       1.1927276E+00
       1.1759985E+00
       6.2595325E-01
       1.1752211E+00
       1.1864334E+00
       1.1593164E+00
       1.1505397E+00
       8.3422721E-01
       8.4205654E-01
       1.1422841E+00
       1.1258550E+00
       1.1021803E+00
       1.1623634E+00
       1.1323111E+00
       1.0888539E+00
       9.9966760E-01
       1.0237303E+00
       9.7723957E-01
       1.1894465E+00
       1.1301626E+00
       1.0388776E+00
       1.0864557E+00
       1.0215624E+00
       1.2079520E+00
       9.0877320E-01
       1.1939167E+00
       9.4547384E-01
       9.6859115E-01
       1.1529728E+00
       9.7942808E-01
       9.7257365E-01
       9.4648149E-01
       8.6548892E-01
       8.8217234E-01
       8.2457122E-01
       8.9880120E-01
       1.1673161E+00
       1.1856547E+00
       9.1652082E-01
       9.4537773E-01
       9.1539784E-01
       8.3267824E-01
       8.5190190E-01
       8.7191181E-01
       8.0466417E-01
       1.0958763E+00
       1.2005490E+00
       8.8920355E-01
       9.2439220E-01
       8.4340545E-01
       8.3214190E-01
       8.1959159E-01
       7.2355012E-01
       1.2085641E+00
       7.9225947E-01
       1.1232578E+00
       1.1601742E+00
       8.1167155E-01
       7.8495624E-01
       6.5053928E-01
       1.1901188E+00
       1.1379463E+00
       7.9380917E-01
       7.6121615E-01
       7.7086031E-01
       7.5925630E-01
       7.5774824E-01
       8.8098753E-01
       6.7022331E-01
       1.0249084E+00
       3.2447155E-01
       1.0189615E+00
       5.0414384E-01
       6.0057067E-01
       4.1918641E-01
       7.6974061E-01
       7.5642409E-01
       3.8733910E-01
       7.6601062E-01
       7.6968478E-01
       7.5211555E-01
       7.5528826E-01
       1.9799717E-01
       3.9842032E-01
       2.7079252E-01
       8.4373186E-02
       1.7638016E-01
       1.6253989E-01
       7.7403390E-01
       7.9888981E-01
       7.6100390E-01
       7.5411215E-01
       9.4416112E-02
       4.0087298E-02
       8.2478392E-01
       7.5620720E-01
       7.5420301E-01
       7.5429357E-01
       4.5630038E-02
       7.6174413E-01
       7.5814544E-01
       7.7010592E-01
       1.1185107E-01
       7.5553816E-01
       7.5840262E-01
       7.5780581E-01
       7.6606090E-01
       7.5334077E-01
       7.6574206E-01
       7.6089849E-01
       7.5955767E-01
       7.5986968E-01
       7.5863961E-01
       7.5710808E-01
       7.5935289E-01
       7.6816623E-01
       7.6436781E-01
       7.7335672E-01
       7.6256633E-01
       7.6501705E-01
       1.8571649E-01
       4.2787639E-04
       7.7975543E-04
       2.0078980E-03
       1.6554934E-03
       1.4296772E-02
       6.6093886E-04
       5.9607007E-03
       1.5634225E-02
       3.8002877E-02
       1.0403865E-01
       7.5360824E-02
       1.0674378E-01
       2.2705695E-02
       3.2017715E-02
       7.1254540E-02
       1.0755333E-01
       2.3887250E-02
       2.0250174E-01
       9.5856956E-02
       1.1503123E-02
       1.6335345E-01
       5.9119237E-02
       2.2885978E-01
       1.9285078E-01
       1.2193357E-01
       5.4999136E-02
       4.4344306E-04
       1.2454545E-03
       6.0480914E-04
       6.3184196E-03
       1.1362808E-03
       4.5746907E-03
       3.1791333E-03
       1.1870266E-03
       1.7294900E-02
       7.9714250E-03
       2.8363202E-03
       2.5257066E-03
       2.6700913E-03
       6.1854448E-03
       3.0354017E-02
       1.4873531E-01
       2.4321023E-02
       4.2792099E-02
       1.1005815E-01
       6.8847646E-02
       6.1317957E-02
       6.7000929E-02
       3.3388899E-01
       1.8660920E-01
       5.3785745E-01
       4.0273712E-01
       6.4119463E-01
       6.1033214E-01
       5.1136176E-01
       8.2506975E-01
       4.6307732E-01
       7.4551122E-01
       7.4302436E-01
       8.1761636E-01
       7.5267618E-01
       7.0176503E-01
       6.7280706E-01
       8.4869454E-01
       8.1681921E-01
       8.8273989E-01
       4.1482354E-01
       9.4387444E-01
       8.4667554E-01
       9.0176646E-01
       6.9791842E-01
       9.0274405E-01
       9.9338957E-01
       9.5484923E-01
       9.3396499E-01
       7.7505311E-01
       5.1657522E-01
       3.4493588E-01
       2.8444008E-01
       4.3445642E-01
       7.5187693E-01
       5.9733632E-01
       4.5034828E-01
       3.9381989E-03
       1.1995271E-03
       5.2091941E-04
       3.7143586E-04
       1.3961293E-02
       3.2162329E-01
       1.7911041E-01
       2.6465184E-01
       2.7730388E-01
       4.6656186E-02
       3.2625296E-02
       2.6162684E-01
       4.4171479E-01
       4.5850971E-01
       4.9871477E-01
       5.7295254E-01
       5.3161956E-01
       5.7069579E-01
       5.2930056E-01
       5.8259067E-01
       6.3490667E-01
       6.4668888E-01
       6.4648503E-01
       5.1262979E-01
       4.8053283E-01
       5.2787768E-01
       5.6887333E-01
       5.4363584E-01
       5.7784802E-01
       5.1821676E-01
       6.3652235E-01
       5.3044993E-01
       4.4480904E-01
       4.8592028E-01
       4.2651822E-01
       3.9806033E-01
       8.1915469E-02
       2.3290799E-01
       8.5019635E-01
       8.1081049E-01
       7.6315250E-01
       7.3913130E-01
       6.2957245E-01
       9.4941199E-01
       9.1718660E-01
       9.0603297E-01
       9.1925332E-01
       9.1570300E-01
       9.0225804E-01
       9.0327013E-01
       8.7550830E-01
       1.0215854E+00
       9.1724811E-01
       8.4934522E-01
       8.6265833E-01
       9.0715267E-01
       7.7925110E-01
       8.8024275E-01
       8.1846943E-01
       8.6290788E-01
       8.2823006E-01
       8.1908575E-01
       7.8174332E-01
       7.5040963E-01
       7.7782002E-01
       8.1983551E-01
       7.8322029E-01
       7.1103627E-01
       7.5244267E-01
       9.0822389E-01
       7.2701774E-01
       8.7102010E-01
       7.5488866E-01
       7.8009108E-01
       8.0358782E-01
       8.0932317E-01
       9.4342154E-01
       9.4113588E-01
       1.0796336E+00
       1.0570621E+00
       9.5748380E-01
       8.8717486E-01
       1.1798268E+00
       1.0354040E+00
       1.0568858E+00
       7.8966181E-01
       8.7575511E-01
       7.5664016E-01
       7.5917223E-01
       7.7372304E-01
       7.6502095E-01
       7.6672952E-01
       7.7873945E-01
       7.7476544E-01
       7.6951804E-01
       7.8461614E-01
       7.7407400E-01
       7.6330753E-01
       7.4706502E-01
       7.4999933E-01
       7.5757776E-01
       7.5806511E-01
       7.6123992E-01
       7.6733780E-01
       7.5988570E-01
       7.7266347E-01
       7.8259378E-01
       8.9535944E-04
       2.1799761E-03
       7.1750262E-03
       3.0033246E-02
       6.3581838E-04
       8.1972564E-04
       3.4014856E-02
       8.0063895E-02
       8.8625793E-04
       1.7061692E-02
       1.3348106E-01
       8.5405070E-02
       1.9043134E-02
       2.8412128E-02
       6.2796959E-01
       1.9174321E-01
       3.0892557E-01
       9.3422881E-01
       1.8711819E-01
       5.0235956E-01
       2.3506710E-01
       2.0190547E-01
       2.7827808E-01
       6.3481932E-02
       3.4401778E-01
       3.2681137E-01
       1.9890983E-01
       3.0502881E-01
       2.4055008E-01
       2.4442810E-01
       1.7090110E-01
       8.6791419E-02
       3.0586841E-01
       3.1477862E-01
       4.0240869E-01
       2.8775529E-01
       3.2992522E-01
       9.0638401E-02
       5.7114119E-02
       2.1179176E-01
       3.5004227E-01
       3.9168988E-01
       5.4306123E-01
       2.4228169E-01
       3.3317810E-01
       1.7220244E-01
       4.9252581E-01
       4.2000965E-01
       4.5001021E-01
       6.1280165E-01
       3.8315568E-01
       5.7001841E-01
       5.5096741E-01
       3.3811325E-01
       4.9977730E-01
       5.7063099E-01
       5.9209579E-01
       6.9609820E-01
       5.7817431E-01
       6.4887974E-01
       7.3078433E-01
       6.6788057E-01
       6.8222601E-01
       6.2355336E-01
       6.4714773E-01
       7.2405213E-01
       6.0191886E-01
       6.1260576E-01
       5.9788393E-01
       5.5168640E-01
       6.4178349E-01
       5.8281212E-01
       5.8212752E-01
       7.9160303E-01
       7.8086554E-01
       7.4369832E-01
       7.4279442E-01
       4.7466510E-01
       4.2550202E-01
       3.6998332E-01
       4.3171307E-01
       3.8478018E-01
       3.1856674E-01
       3.4959403E-01
       2.1998892E-01
       7.6593080E-01
       6.9486886E-01
       8.6586895E-01
       8.2012222E-01
       8.3526143E-01
       8.1219998E-01
       7.6939996E-01
       8.6211288E-01
       8.5604843E-01
       7.8261746E-01
       8.8770452E-01
       1.1071242E+00
       1.0864444E+00
       1.0637097E+00
       1.0782112E+00
       1.0174102E+00
       1.1161672E+00
       1.1062642E+00
       1.0399745E+00
       1.0805470E+00
       7.8486911E-01
       7.7167552E-01
       8.4662913E-01
       8.6496040E-01
       7.6522638E-01
       8.1125342E-01
       7.9600243E-01
       8.0359369E-01
       8.0363762E-01
       7.8644561E-01
       8.2473288E-01
       7.7861323E-01
       8.1096181E-01
       8.3346541E-01
       7.8326835E-01
       7.4625087E-01
       8.2529678E-01
       8.1417357E-01
       7.8659858E-01
       7.8324144E-01
       7.9243938E-01
       8.2422618E-01
       7.9772937E-01
       7.5600800E-01
       7.9228588E-01
       7.6835333E-01
       8.2609013E-01
       7.8355268E-01
       8.0794904E-01
       7.9955372E-01
       8.0433805E-01
       7.9407622E-01
       8.0987730E-01
       7.9443212E-01
       8.0509852E-01
       7.9842812E-01
       7.7079104E-01
       7.9772776E-01
       8.1491650E-01
       7.7917791E-01
       7.9271077E-01
       9.2242703E-01
       8.3224124E-01
       8.2388219E-01
       8.3931239E-01
       8.0408875E-01
       8.2564206E-01
       7.6073393E-01
       7.6362494E-01
       8.3001225E-01
       8.3488561E-01
       8.3591729E-01
       8.5276395E-01
       8.2696195E-01
       8.2012786E-01
       8.0869953E-01
       7.5676984E-01
       7.8839682E-01
       7.7606127E-01
       7.8205161E-01
       8.0140330E-01
       8.0870987E-01
       7.7924696E-01
       7.7261722E-01
       7.4613705E-01
       7.9865452E-01
       8.7130872E-01
       7.9425639E-01
       8.1732627E-01
       7.4736112E-01
       8.1919746E-01
       7.5128881E-01
       7.5155776E-01
       7.4861323E-01
       7.4046689E-01
       7.4425819E-01
       7.6456997E-01
       7.4804785E-01
       7.5421493E-01
       7.7278524E-01
       7.8804781E-01
       7.5364624E-01
       8.1950881E-01
       7.4398436E-01
       7.7741109E-01
       7.6944470E-01
       7.5345913E-01
       8.0333145E-01
       8.0303248E-01
       8.4457979E-01
       8.5751877E-01
       8.3439109E-01
       7.9139669E-01
       7.6191090E-01
       7.4904503E-01
       9.1770668E-01
       8.1107737E-01
       7.5216315E-01
       7.5750837E-01
       7.7161239E-01
       7.5461145E-01
       7.7396786E-01
       7.7572816E-01
       7.7145766E-01
       7.7582554E-01
       7.7157989E-01
       7.6573751E-01
       7.7835290E-01
       7.6967888E-01
       7.9302193E-01
       7.7267020E-01
       7.8918487E-01
       7.8343223E-01
       7.9867382E-01
       7.7814654E-01
       7.8823040E-01
       7.8269223E-01
       7.7489314E-01
       7.9218382E-01
       7.7884799E-01
       7.8873146E-01
       7.8197261E-01
       7.8727199E-01