# vtk DataFile Version 3.0
# Solution du M1 TR
ASCII
DATASET UNSTRUCTURED_GRID
POINTS   3280  float
0.0000000E+00  0.0000000E+00  0.1999976E+01
0.2000000E+01  0.0000000E+00  0.1000000E+00
0.2000000E+01  0.1000000E+01  0.1000000E+00
0.0000000E+00  0.1000000E+01  0.1999972E+01
0.1000000E+01  0.0000000E+00  0.2691293E+00
0.1000000E+01  0.1000000E+01  0.2533260E+00
0.1500000E+01  0.5000000E+00  0.1600000E+01
0.1500000E+01  0.0000000E+00  0.1000000E+00
0.1723284E+01  0.3570951E+00  0.1000000E+00
0.1500000E+01  0.2500000E+00  0.1000000E+00
0.1515103E+01  0.2763186E+00  0.1000000E+00
0.1594866E+01  0.2826386E+00  0.1000000E+00
0.1562500E+01  0.1875000E+00  0.1000000E+00
0.1534357E+01  0.1819434E+00  0.1000000E+00
0.1561083E+01  0.3343258E+00  0.4307839E+00
0.1750000E+01  0.0000000E+00  0.1000000E+00
0.1503267E+01  0.1622339E+00  0.1000000E+00
0.1514910E+01  0.2261192E+00  0.1000000E+00
0.1610795E+01  0.1290247E+00  0.1000000E+00
0.1539062E+01  0.1536458E+00  0.1000000E+00
0.1510772E+01  0.1982718E+00  0.1000000E+00
0.1541862E+01  0.2179813E+00  0.1000000E+00
0.1475030E+01  0.2178147E+00  0.1000000E+00
0.1539206E+01  0.2578835E+00  0.1000000E+00
0.1521085E+01  0.2465697E+00  0.1000000E+00
0.1496499E+01  0.2146241E+00  0.1000000E+00
0.1481433E+01  0.1870688E+00  0.1000000E+00
0.1586261E+01  0.1960616E+00  0.1000000E+00
0.1460896E+01  0.2899333E+00  0.1000000E+00
0.1542195E+01  0.2867649E+00  0.1000000E+00
0.1486080E+01  0.2754813E+00  0.1000000E+00
0.1536278E+01  0.3247610E+00  0.3990705E+00
0.1510131E+01  0.3295675E+00  0.5068801E+00
0.1455545E+01  0.2514402E+00  0.1000000E+00
0.1610995E+01  0.1909452E+00  0.1000000E+00
0.1564462E+01  0.2395252E+00  0.1000000E+00
0.1571524E+01  0.3026484E+00  0.1000000E+00
0.1613657E+01  0.2555806E+00  0.1000000E+00
0.1633998E+01  0.2714643E+00  0.1000000E+00
0.1534973E+01  0.3650914E+00  0.8716197E+00
0.1583157E+01  0.2286349E+00  0.1000000E+00
0.1586501E+01  0.1581416E+00  0.1000000E+00
0.1651985E+01  0.2274641E+00  0.1000000E+00
0.1619170E+01  0.2936434E+00  0.1000000E+00
0.1678889E+01  0.2641389E+00  0.1000000E+00
0.1642286E+01  0.2930521E+00  0.1000000E+00
0.1526415E+01  0.3446283E+00  0.6685711E+00
0.1662420E+01  0.3044259E+00  0.1000000E+00
0.1636786E+01  0.2469276E+00  0.1000000E+00
0.1588953E+01  0.3366240E+00  0.3023384E+00
0.1616427E+01  0.3314099E+00  0.1000000E+00
0.1598305E+01  0.3102698E+00  0.1000000E+00
0.1655410E+01  0.2614708E+00  0.1000000E+00
0.1487553E+01  0.3072167E+00  0.2004883E+00
0.1520126E+01  0.3036443E+00  0.1389768E+00
0.1477894E+01  0.2544664E+00  0.1000000E+00
0.1567847E+01  0.2133479E+00  0.1000000E+00
0.1663947E+01  0.3299725E+00  0.1000000E+00
0.1567022E+01  0.2696000E+00  0.1000000E+00
0.1678598E+01  0.3509559E+00  0.1000000E+00
0.1611933E+01  0.3827205E+00  0.6143694E+00
0.1640491E+01  0.3197373E+00  0.1000000E+00
0.1588015E+01  0.2526666E+00  0.1000000E+00
0.1708471E+01  0.3144917E+00  0.1000000E+00
0.1606944E+01  0.3564315E+00  0.3981668E+00
0.1604614E+01  0.2314093E+00  0.1000000E+00
0.1643491E+01  0.3631133E+00  0.1252149E+00
0.2000000E+01  0.5000000E+00  0.1000000E+00
0.1494727E+01  0.3621796E+00  0.8866650E+00
0.1701807E+01  0.3477237E+00  0.1000000E+00
0.1572156E+01  0.3701847E+00  0.7728080E+00
0.1688392E+01  0.3285111E+00  0.1000000E+00
0.1695932E+01  0.3904821E+00  0.1000000E+00
0.1636337E+01  0.3418163E+00  0.1000000E+00
0.1505941E+01  0.9448485E-01  0.1000000E+00
0.1423727E+01  0.1910920E+00  0.1000000E+00
0.1481447E+01  0.3359634E+00  0.5780416E+00
0.1441613E+01  0.3726133E+00  0.8636350E+00
0.1466699E+01  0.3599060E+00  0.8224259E+00
0.1476682E+01  0.4107296E+00  0.1280766E+01
0.1434448E+01  0.3273535E+00  0.3211032E+00
0.1464523E+01  0.3867258E+00  0.1071638E+01
0.1456903E+01  0.3373583E+00  0.5383880E+00
0.1454188E+01  0.3132491E+00  0.2134522E+00
0.1424069E+01  0.2919612E+00  0.1000000E+00
0.1490969E+01  0.3884111E+00  0.1129988E+01
0.1428051E+01  0.4202828E+00  0.1167567E+01
0.1513790E+01  0.3782958E+00  0.1037422E+01
0.1547789E+01  0.4092466E+00  0.1205500E+01
0.1535154E+01  0.3889763E+00  0.1091422E+01
0.1512699E+01  0.4170463E+00  0.1335904E+01
0.1441554E+01  0.3983607E+00  0.1084509E+01
0.1395941E+01  0.3853832E+00  0.7012997E+00
0.1420578E+01  0.3854393E+00  0.8712979E+00
0.1408336E+01  0.3518173E+00  0.4614820E+00
0.1549967E+01  0.3074339E+00  0.1158120E+00
0.1651639E+01  0.4114272E+00  0.4435190E+00
0.1668616E+01  0.3788978E+00  0.1000000E+00
0.1674624E+01  0.4027285E+00  0.1016705E+00
0.1706988E+01  0.4343785E+00  0.1000000E+00
0.1673984E+01  0.4357547E+00  0.3100769E+00
0.1695270E+01  0.4139894E+00  0.1000000E+00
0.1737273E+01  0.4034108E+00  0.1000000E+00
0.1645630E+01  0.3875965E+00  0.3309007E+00
0.1625874E+01  0.4052508E+00  0.6691852E+00
0.1627808E+01  0.4540126E+00  0.9081400E+00
0.1587158E+01  0.4136289E+00  0.1035381E+01
0.1633718E+01  0.4293591E+00  0.7423554E+00
0.1651607E+01  0.4466828E+00  0.6314699E+00
0.1605650E+01  0.4356658E+00  0.1026220E+01
0.1682168E+01  0.4808869E+00  0.3418536E+00
0.1671711E+01  0.4594749E+00  0.4327346E+00
0.1698428E+01  0.4596870E+00  0.1000000E+00
0.1646221E+01  0.4851828E+00  0.7899930E+00
0.1607747E+01  0.4151289E+00  0.8945281E+00
0.1584205E+01  0.4841185E+00  0.1324650E+01
0.1747573E+01  0.4622079E+00  0.1000000E+00
0.1568396E+01  0.4481495E+00  0.1323756E+01
0.1601760E+01  0.4629165E+00  0.1160111E+01
0.1723356E+01  0.4540167E+00  0.1000000E+00
0.1732897E+01  0.4294241E+00  0.1000000E+00
0.1722218E+01  0.4972746E+00  0.1000000E+00
0.1715121E+01  0.4754441E+00  0.1000000E+00
0.1584567E+01  0.4345797E+00  0.1171320E+01
0.1563465E+01  0.4258523E+00  0.1242787E+01
0.1534166E+01  0.4440258E+00  0.1438735E+01
0.1615090E+01  0.4918227E+00  0.1100779E+01
0.1717469E+01  0.4134541E+00  0.1000000E+00
0.1718488E+01  0.3909170E+00  0.1000000E+00
0.1741353E+01  0.3769080E+00  0.1000000E+00
0.1781199E+01  0.4241746E+00  0.1000000E+00
0.2000000E+01  0.2500000E+00  0.1000000E+00
0.1756308E+01  0.4199875E+00  0.1000000E+00
0.1762447E+01  0.3937207E+00  0.1000000E+00
0.1765097E+01  0.4438197E+00  0.1000000E+00
0.1807974E+01  0.4625425E+00  0.1000000E+00
0.1789176E+01  0.4471344E+00  0.1000000E+00
0.1514158E+01  0.1287364E+00  0.1000000E+00
0.1777674E+01  0.4803377E+00  0.1000000E+00
0.1811145E+01  0.4395021E+00  0.1000000E+00
0.1850404E+01  0.4566449E+00  0.1000000E+00
0.1748483E+01  0.3522599E+00  0.1000000E+00
0.1731235E+01  0.3304535E+00  0.1000000E+00
0.1777870E+01  0.3654441E+00  0.1000000E+00
0.1748149E+01  0.2821176E+00  0.1000000E+00
0.1732875E+01  0.3039003E+00  0.1000000E+00
0.1708314E+01  0.2807181E+00  0.1000000E+00
0.1767650E+01  0.3193756E+00  0.1000000E+00
0.1372661E+01  0.1704076E+00  0.1000000E+00
0.1411157E+01  0.2494459E+00  0.1000000E+00
0.1448000E+01  0.2246098E+00  0.1000000E+00
0.1360382E+01  0.2278583E+00  0.1000001E+00
0.1433680E+01  0.2431125E+00  0.1000000E+00
0.1388814E+01  0.2314916E+00  0.1000000E+00
0.1314549E+01  0.2124991E+00  0.1000035E+00
0.1404157E+01  0.2007613E+00  0.1000000E+00
0.1415035E+01  0.1072182E+00  0.1000000E+00
0.1520299E+01  0.1091515E+00  0.1000000E+00
0.1459010E+01  0.1690672E+00  0.1000000E+00
0.1436337E+01  0.2690050E+00  0.1000000E+00
0.1443480E+01  0.1263360E+00  0.1000000E+00
0.1625000E+01  0.0000000E+00  0.1000000E+00
0.1414954E+01  0.2197329E+00  0.1000000E+00
0.1335299E+01  0.2266424E+00  0.1000006E+00
0.1396801E+01  0.1612344E+00  0.1000000E+00
0.1792033E+01  0.3934232E+00  0.1000000E+00
0.1541310E+01  0.1264947E+00  0.1000000E+00
0.1483859E+01  0.1256971E+00  0.1000000E+00
0.1500341E+01  0.1139400E+00  0.1000000E+00
0.1498380E+01  0.1421255E+00  0.1000000E+00
0.1478242E+01  0.1468909E+00  0.1000000E+00
0.1453147E+01  0.1972183E+00  0.1000000E+00
0.1348833E+01  0.2067866E+00  0.1000002E+00
0.1368157E+01  0.2800764E+00  0.1000001E+00
0.1250000E+01  0.0000000E+00  0.1000820E+00
0.1496272E+01  0.2780308E-01  0.1000000E+00
0.1430228E+01  0.1622338E+00  0.1000000E+00
0.1544491E+01  0.1012427E+00  0.1000000E+00
0.1505524E+01  0.5428530E-01  0.1000000E+00
0.1576405E+01  0.1180891E+00  0.1000000E+00
0.1526885E+01  0.8834234E-01  0.1000000E+00
0.1558557E+01  0.6358195E-01  0.1000000E+00
0.1372206E+01  0.9428859E-01  0.1000001E+00
0.1414069E+01  0.8636887E-01  0.1000000E+00
0.1351230E+01  0.1581055E+00  0.1000002E+00
0.1371634E+01  0.2528708E+00  0.1000001E+00
0.1392978E+01  0.2694234E+00  0.1000000E+00
0.1321668E+01  0.2603105E+00  0.1000029E+00
0.1392566E+01  0.3027057E+00  0.1000000E+00
0.1345601E+01  0.2495441E+00  0.1000005E+00
0.1349996E+01  0.1827855E+00  0.1000002E+00
0.1475238E+01  0.9618066E-01  0.1000000E+00
0.1487372E+01  0.4556180E+00  0.1520154E+01
0.1432024E+01  0.3509343E+00  0.5934516E+00
0.1619231E+01  0.5383449E+00  0.1011762E+01
0.1532505E+01  0.4233173E+00  0.1339870E+01
0.1547332E+01  0.4788657E+00  0.1499238E+01
0.1627786E+01  0.4750493E+00  0.9643064E+00
0.1750658E+01  0.4911384E+00  0.1000000E+00
0.1783313E+01  0.5336292E+00  0.1000000E+00
0.1744147E+01  0.5299352E+00  0.1000000E+00
0.1772978E+01  0.5077787E+00  0.1000000E+00
0.1739682E+01  0.5092411E+00  0.1000000E+00
0.1715917E+01  0.5251974E+00  0.1000000E+00
0.1809547E+01  0.4999146E+00  0.1000000E+00
0.1486188E+01  0.5335558E+00  0.1550621E+01
0.1695320E+01  0.5058771E+00  0.1680790E+00
0.1793562E+01  0.5145404E+00  0.1000000E+00
0.1827482E+01  0.5355643E+00  0.1000000E+00
0.1805457E+01  0.5332234E+00  0.1000000E+00
0.1812320E+01  0.5734372E+00  0.1000000E+00
0.1794794E+01  0.5557356E+00  0.1000000E+00
0.1637325E+01  0.5533192E+00  0.7862073E+00
0.1761146E+01  0.5591762E+00  0.1000000E+00
0.1789115E+01  0.5788851E+00  0.1000000E+00
0.1693317E+01  0.6123782E+00  0.1000000E+00
0.1522396E+01  0.5359490E+00  0.1532728E+01
0.1814654E+01  0.6254783E+00  0.1000000E+00
0.1726166E+01  0.5505978E+00  0.1000000E+00
0.1691322E+01  0.5307786E+00  0.1918271E+00
0.1516987E+01  0.5143680E+00  0.1581438E+01
0.1661909E+01  0.5147686E+00  0.6087765E+00
0.1761865E+01  0.6508066E+00  0.1000000E+00
0.1692174E+01  0.5698207E+00  0.1000000E+00
0.1780214E+01  0.6037461E+00  0.1000000E+00
[...]
POINT_DATA    3280
SCALARS hauteur float
LOOKUP_TABLE DEFAULT
       1.8999762E+00
       9.9999999E-09
       9.9999999E-09
       1.8999717E+00
       1.6912929E-01
       1.5332598E-01
       9.9999999E-09
       9.9999999E-09
       9.9999999E-09
       9.9999999E-09
       9.9999999E-09
       9.9999999E-09
       9.9999999E-09
       9.9999999E-09
       9.9999999E-09
       9.9999999E-09
       9.9999999E-09
       9.9999999E-09
       9.9999999E-09
       9.9999999E-09
       9.9999999E-09
       9.9999999E-09
       9.9999999E-09
       9.9999999E-09
       9.9999999E-09
       9.9999999E-09
       9.9999999E-09
       9.9999999E-09
       9.9999999E-09
       9.9999999E-09
       9.9999999E-09
       9.9999999E-09
       9.9999999E-09
       9.9999999E-09
       9.9999999E-09
       9.9999999E-09
       9.9999999E-09
       9.9999999E-09
       9.9999999E-09
       9.9999999E-09
       9.9999999E-09
       9.9999999E-09
       9.9999999E-09
       9.9999999E-09
       9.9999999E-09
       9.9999999E-09
       9.9999999E-09
       9.9999999E-09
       9.9999999E-09
       9.9999999E-09
       9.9999999E-09
       9.9999999E-09
       9.9999999E-09
       9.9999999E-09
       9.9999999E-09
       9.9999999E-09
       9.9999999E-09
       9.9999999E-09
       9.9999999E-09
       9.9999999E-09
       9.9999999E-09
       9.9999999E-09
       9.9999999E-09
       9.9999999E-09
       9.9999999E-09
       9.9999999E-09
       9.9999999E-09
       9.9999999E-09
       9.9999999E-09
       9.9999999E-09
       9.9999999E-09
       9.9999999E-09
       9.9999999E-09
       9.9999999E-09
       9.9999999E-09
       9.9999999E-09
       9.9999999E-09
       9.9999999E-09
       9.9999999E-09
       9.9999999E-09
       9.9999999E-09
       9.9999999E-09
       9.9999999E-09
       9.9999999E-09
       9.9999999E-09
       9.9999999E-09
       9.9999999E-09
       9.9999999E-09
       9.9999999E-09
       9.9999999E-09
       9.9999999E-09
       9.9999999E-09
       2.7262549E-08
       9.9999999E-09
       1.1916079E-08
       9.9999999E-09
       9.9999999E-09
       9.9999999E-09
       9.9999999E-09
       9.9999999E-09
       9.9999999E-09
       9.9999999E-09
       9.9999999E-09
       9.9999999E-09
       9.9999999E-09
       9.9999999E-09
       9.9999999E-09
       9.9999999E-09
       9.9999999E-09
       9.9999999E-09
       9.9999999E-09
       9.9999999E-09
       9.9999999E-09
       9.9999999E-09
       9.9999999E-09
       9.9999999E-09
       9.9999999E-09
       9.9999999E-09
       9.9999999E-09
       9.9999999E-09
       9.9999999E-09
       9.9999999E-09
       9.9999999E-09
       9.9999999E-09
       9.9999999E-09
       9.9999999E-09
       9.9999999E-09
       9.9999999E-09
       9.9999999E-09
       9.9999999E-09
       9.9999999E-09
       9.9999999E-09
       9.9999999E-09
       9.9999999E-09
       9.9999999E-09
       9.9999999E-09
       9.9999999E-09
       9.9999999E-09
       9.9999999E-09
       9.9999999E-09
       9.9999999E-09
       9.9999999E-09
       9.9999999E-09
       9.9999999E-09
       9.9999999E-09
       9.9999999E-09
       9.9999999E-09
       9.9999999E-09
       4.5535136E-08
       9.9999999E-09
       9.9999999E-09
       1.0303938E-07
       9.9999999E-09
       1.6784031E-08
       3.4686772E-06
       9.9999999E-09
       9.9999999E-09
       9.9999999E-09
       9.9999999E-09
       9.9999999E-09
       9.9999999E-09
       9.9999999E-09
       9.9999999E-09
       6.4838183E-07
       9.9999999E-09
       9.9999999E-09
       9.9999999E-09
       9.9999999E-09
       9.9999999E-09
       9.9999999E-09
       9.9999999E-09
       9.9999999E-09
       2.0381661E-07
       1.1440198E-07
       8.1981709E-05
       9.9999999E-09
       9.9999999E-09
       9.9999999E-09
       9.9999999E-09
       9.9999999E-09
       9.9999999E-09
       9.9999999E-09
       5.3618007E-08
       9.9999999E-09
       2.3498625E-07
       9.6171108E-08
       2.1223913E-08
       2.9036321E-06
       2.6853788E-08
       4.7377285E-07
       2.2089732E-07
       9.9999999E-09
       9.9999999E-09
       9.9999999E-09
       9.9999999E-09
       9.9999999E-09
       9.9999999E-09
       9.9999999E-09
       9.9999999E-09
       9.9999999E-09
       9.9999999E-09
       9.9999999E-09
       9.9999999E-09
       9.9999999E-09
       9.9999999E-09
       9.9999999E-09
       9.9999999E-09
       9.9999999E-09
       9.9999999E-09
       9.9999999E-09
       9.9999999E-09
       9.9999999E-09
       9.9999999E-09
       9.9999999E-09
       9.9999999E-09
       9.9999999E-09
       9.9999999E-09
       9.9999999E-09
       9.9999999E-09
       9.9999999E-09
       9.9999999E-09
       9.9999999E-09
       9.9999999E-09
       9.9999999E-09
       9.9999999E-09
       9.9999999E-09
       9.9999999E-09
       9.9999999E-09
       9.9999999E-09
       9.9999999E-09
       9.9999999E-09
       9.9999999E-09
       9.9999999E-09
       9.9999999E-09
       9.9999999E-09
       9.9999999E-09
       9.9999999E-09
       9.9999999E-09
       9.9999999E-09
       9.9999999E-09
       9.9999999E-09
       9.9999999E-09
       9.9999999E-09
       9.9999999E-09
       9.9999999E-09
       9.9999999E-09
       9.9999999E-09
       9.9999999E-09
       9.9999999E-09
       9.9999999E-09
       9.9999999E-09
       3.5653072E-08
       9.9999999E-09
       9.9999999E-09
       9.9999999E-09
       5.3940398E-08
       9.9999999E-09
       9.9999999E-09
       9.9999999E-09
       9.9999999E-09
       9.9999999E-09
       9.9999999E-09
       9.9999999E-09
       9.9999999E-09
       9.9999999E-09
       9.9999999E-09
       9.9999999E-09
       9.9999999E-09
       9.9999999E-09
       9.9999999E-09
       9.9999999E-09
       9.9999999E-09
       9.9999999E-09
       9.9999999E-09
       9.9999999E-09
       9.9999999E-09
       3.9389595E-07
       9.9999999E-09
       5.4597751E-06
       1.2383811E-06
       8.9763296E-06
       9.9999999E-09
       9.9999999E-09
       4.3932032E-08
       9.9999999E-09
       9.9999999E-09
       9.9999999E-09
       9.9999999E-09
       9.9999999E-09
       9.9999999E-09
       6.0033105E-08
       8.3533658E-08
       4.1401900E-07
       9.9999999E-09
       9.9999999E-09
       9.9999999E-09
       9.9999999E-09
       9.9999999E-09
       9.9999999E-09
       9.9999999E-09
       9.9999999E-09
       9.9999999E-09
       9.9999999E-09
       9.9999999E-09
       9.9999999E-09
       9.9999999E-09
       9.9999999E-09
       9.9999999E-09
       9.9999999E-09
       9.9999999E-09
       9.9999999E-09
       9.9999999E-09
       9.9999999E-09
       9.9999999E-09
       9.9999999E-09
       9.9999999E-09
       9.9999999E-09
       9.9999999E-09
       9.9999999E-09
       9.9999999E-09
       9.9999999E-09
       9.9999999E-09
       9.9999999E-09
       9.9999999E-09
       9.9999999E-09
       9.9999999E-09
       9.9999999E-09
       9.9999999E-09
       9.9999999E-09
       9.9999999E-09
       9.9999999E-09
       9.9999999E-09
       9.9999999E-09
       9.9999999E-09
       9.9999999E-09
       9.9999999E-09
       9.9999999E-09
       9.9999999E-09
       9.9999999E-09
       9.9999999E-09
       9.9999999E-09
       9.9999999E-09
       9.9999999E-09
       9.9999999E-09
       9.9999999E-09
       9.9999999E-09
       9.9999999E-09
       9.9999999E-09
       9.9999999E-09
       9.9999999E-09
       9.9999999E-09
       9.9999999E-09
       9.9999999E-09
       9.9999999E-09
       9.9999999E-09
       9.9999999E-09
       9.9999999E-09
       9.9999999E-09
       9.9999999E-09
       9.9999999E-09
       9.9999999E-09
       9.9999999E-09
       9.9999999E-09
       9.9999999E-09
       9.9999999E-09
       9.9999999E-09
       2.3176347E-08
       1.5193933E-08
       9.9999999E-09
       9.9999999E-09
       9.9999999E-09
       9.9999999E-09
       9.9999999E-09
       9.9999999E-09
       9.9999999E-09
       9.9999999E-09
       1.2037858E-06
       1.2504265E-07
       5.8585381E-07
       2.8919614E-06
       6.3018353E-07
       2.9160649E-06
       4.5495020E-05
       1.0948244E-05
       7.1902117E-05
       1.4848151E-05
       3.7562057E-05
       5.3032554E-04
       1.4237776E-04
       3.5416148E-04
       1.7408275E-04
       7.8559643E-05
       7.7784626E-06
       1.7380550E-06
       9.0946837E-05
       1.7785747E-05
       3.7373275E-05
       4.7762774E-04
       1.5303723E-04
       1.9814869E-05
       1.2289802E-04
       4.8272317E-06
       1.1767260E-06
       2.3328865E-05
       2.7656975E-07
       2.3591764E-06
       1.5278582E-06
       5.2632758E-07
       2.5036374E-07
       1.4270159E-06
       2.1293900E-05
       6.7264522E-06
       7.7978886E-08
       5.4761566E-06
       1.5657629E-05
       3.1708409E-05
       1.0940486E-05
       2.3121102E-07
       6.5134786E-07
       3.9068022E-04
       1.6584366E-05
       4.6539132E-04
       9.2107492E-05
       1.3384049E-04
       3.6454076E-04
       2.9830242E-03
       1.3308111E-03
       1.9032556E-03
       6.8766140E-05
       2.9556736E-04
       2.6370493E-03
       1.0561272E-03
       3.0556976E-03
       9.0058550E-05
       1.7080365E-02
       5.1841765E-05
       7.9783439E-03
       4.2705260E-06
       4.3128504E-04
       6.8350798E-03
       9.4990137E-03
       1.1999562E-02
       3.8736166E-02
       2.7115290E-02
       3.4745948E-02
       1.0173549E-02
       2.0905491E-05
       1.4053858E-04
       1.9056609E-02
       1.8067203E-02
       2.3431003E-02
       6.8951538E-02
       5.1772471E-02
       1.9848204E-02
       7.6363484E-02
       9.1410940E-06
       5.9432184E-05
       3.7324560E-02
       2.6234413E-02
       3.8893703E-02
       5.3349521E-02
       7.1928666E-02
       6.8956646E-07
       5.8854573E-05
       1.1270021E-01
       1.6305331E-05
       5.5404085E-04
       8.3970421E-02
       1.2382063E-01
       4.2105595E-07
       2.4258236E-04
       8.6394246E-04
       1.0179133E-01
       1.7445110E-01
       1.5193705E-01
       2.1999358E-01
       2.1528873E-01
       2.8611655E-06
       5.9415116E-07
       4.6416421E-06
       1.5051671E-08
       5.8585375E-06
       1.1250162E-07
       2.0513174E-07
       6.3634386E-08
       1.6610569E-01
       3.2772447E-01
       1.6982159E-08
       1.7679810E-01
       1.8006666E-01
       2.7166425E-01
       2.7011557E-01
       9.9999999E-09
       3.3221419E-08
       9.9999999E-09
       9.9999999E-09
       9.9999999E-09
       9.9999999E-09
       1.5714264E-01
       1.0175567E-01
       2.1658634E-01
       2.2544707E-01
       9.9999999E-09
       9.9999999E-09
       7.8754295E-02
       3.0954920E-01
       2.8565567E-01
       1.6612613E-01
       9.9999999E-09
       3.9803509E-01
       1.6796155E-01
       1.1381954E-01
       9.9999999E-09
       3.3245149E-01
       3.6061857E-01
       3.5855461E-01
       4.2783183E-01
       3.0985571E-01
       4.2877733E-01
       3.8470163E-01
       3.6637485E-01
       3.6383975E-01
       3.4836004E-01
       2.8413339E-01
       2.5876815E-01
       4.4453319E-01
       4.1311967E-01
       4.8208617E-01
       3.9553402E-01
       4.1886105E-01
       9.9999999E-09
       9.9999999E-09
       9.9999999E-09
       9.9999999E-09
       9.9999999E-09
       9.9999999E-09
       9.9999999E-09
       9.9999999E-09
       9.9999999E-09
       9.9999999E-09
       9.9999999E-09
       9.9999999E-09
       9.9999999E-09
       9.9999999E-09
       9.9999999E-09
       9.9999999E-09
       9.9999999E-09
       9.9999999E-09
       9.9999999E-09
       9.9999999E-09
       9.9999999E-09
       9.9999999E-09
       9.9999999E-09
       9.9999999E-09
       9.9999999E-09
       9.9999999E-09
       9.9999999E-09
       9.9999999E-09
       9.9999999E-09
       9.9999999E-09
       9.9999999E-09
       9.9999999E-09
       9.9999999E-09
       9.9999999E-09
       9.9999999E-09
       9.9999999E-09
       9.9999999E-09
       9.9999999E-09
       9.9999999E-09
       9.9999999E-09
       9.9999999E-09
       9.9999999E-09
       9.9999999E-09
       9.9999999E-09
       9.9999999E-09
       9.9999999E-09
       9.9999999E-09
       9.9999999E-09
       9.9999999E-09
       9.9999999E-09
       9.9999999E-09
       9.9999999E-09
       9.9999999E-09
       9.9999999E-09
       9.9999999E-09
       9.9999999E-09
       9.9999999E-09
       9.9999999E-09
       9.9999999E-09
       9.9999999E-09
       9.9999999E-09
       9.9999999E-09
       9.9999999E-09
       9.9999999E-09
       9.9999999E-09
       9.9999999E-09
       9.9999999E-09
       9.9999999E-09
       9.9999999E-09
       9.9999999E-09
       9.9999999E-09
       9.9999999E-09
       9.9999999E-09
       9.9999999E-09
       9.9999999E-09
       9.9999999E-09
       9.9999999E-09
       9.9999999E-09
       9.9999999E-09
       9.9999999E-09
       9.9999999E-09
       1.1664481E-08
       9.9999999E-09
       9.9999999E-09
       9.9999999E-09
       9.9999999E-09
       9.9999999E-09
       9.9999999E-09
       9.9999999E-09
       9.9999999E-09
       9.9999999E-09
       9.9999999E-09
       9.9999999E-09
       9.9999999E-09
       9.9999999E-09
       9.9999999E-09
       9.9999999E-09
       9.9999999E-09
       9.9999999E-09
       9.9999999E-09
       9.9999999E-09
       9.9999999E-09
       9.9999999E-09
       9.9999999E-09
       9.9999999E-09
       9.9999999E-09
       9.9999999E-09
       9.9999999E-09
       9.9999999E-09
       9.9999999E-09
       9.9999999E-09
       9.9999999E-09
       9.9999999E-09
       9.9999999E-09
       9.9999999E-09
       9.9999999E-09
       9.9999999E-09
       9.9999999E-09
       9.9999999E-09
       9.9999999E-09
       9.9999999E-09
       9.9999999E-09
       9.9999999E-09
       9.9999999E-09
       9.9999999E-09
       9.9999999E-09
       9.9999999E-09
       2.0647644E-07
       1.6250607E-06
       9.9999999E-09
       9.9999999E-09
       9.9999999E-09
       9.9999999E-09
       9.9999999E-09
       9.9999999E-09
       1.0134060E-06
       6.4562697E-05
       6.7697604E-04
       2.5112661E-04
       2.2879585E-04
       2.3555410E-03
       7.3488063E-04
       5.4065515E-04
       2.3345232E-03
       2.1470570E-03
       8.7082513E-04
       5.0437481E-03
       1.2364137E-03
       1.2531989E-02
       2.0901527E-04
       8.4184526E-04
       1.4787222E-02
       2.2807245E-03
       1.5109204E-03
       2.6350044E-03
       8.1018061E-07
       4.4915561E-04
       1.3745384E-04
       5.6275268E-03
       9.4137085E-03
       5.2095914E-06
       1.9934651E-06
       3.8721150E-06
       1.2492457E-03
       4.2353103E-03
       1.9463919E-06
       2.9007405E-04
       6.3779071E-03
       3.0557043E-03
       1.2273114E-01
       4.8343696E-02
       2.6088629E-01
       3.7371760E-01
       4.8168284E-01
       4.2006178E-01
       4.3648955E-01
       5.1869612E-01
       4.9188464E-01
       4.5886553E-01
       5.5377068E-01
       4.7916764E-01
       4.0191517E-01
       2.6217466E-01
       2.4530702E-01
       3.0648340E-01
       3.2001555E-01
       2.2937264E-01
       1.9658816E-01
       2.4805386E-01
       4.7732906E-01
       5.4733273E-01
       9.9999999E-09
       9.9999999E-09
       9.9999999E-09
       9.9999999E-09
       9.9999999E-09
       9.9999999E-09
       9.9999999E-09
       9.9999999E-09
       9.9999999E-09
       9.9999999E-09
       9.9999999E-09
       9.9999999E-09
       9.9999999E-09
       9.9999999E-09
       9.9999999E-09
       9.9999999E-09
       9.9999999E-09
       9.9999999E-09
       9.9999999E-09
       8.0394185E-08
       9.9999999E-09
       9.9999999E-09
       9.9999999E-09
       9.9999999E-09
       9.9999999E-09
       9.9999999E-09
       9.9999999E-09
       9.9999999E-09
       9.9999999E-09
       9.9999999E-09
       9.9999999E-09
       9.9999999E-09
       9.9999999E-09
       9.9999999E-09
       9.9999999E-09
       9.9999999E-09
       9.9999999E-09
       9.9999999E-09
       9.9999999E-09
       9.9999999E-09
       9.9999999E-09
       9.9999999E-09
       9.9999999E-09
       9.9999999E-09
       9.9999999E-09
       9.9999999E-09
       9.9999999E-09
       9.9999999E-09
       9.9999999E-09
       9.9999999E-09
       9.9999999E-09
       9.9999999E-09
       9.9999999E-09
       9.9999999E-09
       9.9999999E-09
       9.9999999E-09
       9.9999999E-09
       9.9999999E-09
       9.9999999E-09
       9.9999999E-09
       9.9999999E-09
       9.9999999E-09
       9.9999999E-09
       9.9999999E-09
       9.9999999E-09
       9.9999999E-09
       9.9999999E-09
       9.9999999E-09
       9.9999999E-09
       9.9999999E-09
       9.9999999E-09
       9.9999999E-09
       9.9999999E-09
       9.9999999E-09
       9.9999999E-09
       9.9999999E-09
       9.9999999E-09
       9.9999999E-09
       9.9999999E-09
       9.9999999E-09
       9.9999999E-09
       9.9999999E-09
       9.9999999E-09
       9.9999999E-09
       9.9999999E-09
       9.9999999E-09
       9.9999999E-09
       4.6848511E-05
       8.4192844E-05
       6.3307010E-06
       3.4000872E-05
       8.4956312E-05
       7.7437304E-06
       2.2477530E-05
       3.7288865E-04
       4.4241650E-03
       1.8679039E-03
       2.2582650E-03
       3.4105713E-03
       2.9294688E-03
       7.1075226E-03
       1.1388936E-03
       1.1379695E-03
       3.3651498E-03
       1.4915737E-03
       1.3150231E-01
       4.6493309E-01
       9.5062018E-01
       1.0866132E+00
       4.1467103E-01
       7.2221507E-01
       6.2629803E-01
       6.7497503E-01
       6.7324257E-01
       5.6414845E-01
       8.0963241E-01
       5.0620690E-01
       7.2232068E-01
       8.6691976E-01
       5.4066860E-01
       5.6561913E-02
       8.1461771E-01
       7.4324029E-01
       5.6829972E-01
       5.4907929E-01
       6.0645686E-01
       8.1081712E-01
       6.4048492E-01
       3.4147424E-01
       6.0663722E-01
       4.3883242E-01
       8.1923546E-01
       5.5237893E-01
       7.0362042E-01
       6.5122909E-01
       6.8092948E-01
       6.1506308E-01
       7.1523745E-01
       6.1235593E-01
       6.8509151E-01
       6.3630945E-01
       4.5648625E-01
       6.4070620E-01
       7.4770723E-01
       5.1680875E-01
       5.9964378E-01
       1.4964139E+00
       8.5874241E-01
       8.1711574E-01
       9.0311932E-01
       6.7344420E-01
       8.1503668E-01
       3.8386354E-01
       4.0652550E-01
       8.4333775E-01
       8.7404214E-01
       8.8081160E-01
       9.8993580E-01
       8.2474336E-01
       7.8076152E-01
       7.0178250E-01
       3.5024098E-01
       5.7413586E-01
       4.9217326E-01
       5.3033056E-01
       6.6241011E-01
       7.0184865E-01
       5.1560358E-01
       4.6690682E-01
       1.4641938E-01
       6.3571732E-01
       1.1157414E+00
       6.1334608E-01
       7.6345640E-01
       2.3899606E-01
       7.7487175E-01
       2.9302710E-01
       3.0772731E-01
       2.8681785E-01
       1.9690726E-01
       2.0495541E-01
       1.0570468E-01
       1.8714289E-01
       1.2354724E-01
       7.1470309E-02
       6.8510886E-02
       9.4272032E-02
       4.5443713E-02
       1.1514017E-01
       3.6936499E-02
       5.6625111E-02
       6.9550015E-02
       3.4064258E-02
       4.4780597E-02
       2.1721210E-02
       1.2737943E-02
       9.4405520E-03
       1.9499705E-02
       3.5634894E-02
       3.8699003E-02
       5.3552717E-03
       1.9847612E-02
       2.1973748E-01
       2.9243971E-01
       1.7326120E-01
       2.8227551E-01
       4.8855947E-01
       4.9873209E-01
       4.7026394E-01
       5.0463956E-01
       4.7332136E-01
       4.2576853E-01
       5.2033952E-01
       4.5898297E-01
       6.1293032E-01
       4.8189832E-01
       5.8966440E-01
       5.5613438E-01
       6.4671081E-01
       5.2200180E-01
       5.8594341E-01
       5.5198293E-01
       5.0131413E-01
       6.0904077E-01
       5.2759202E-01
       5.9110871E-01
       5.4178080E-01
       5.7990680E-01