# vtk DataFile Version 3.0
# Solution du M1 TR
ASCII
DATASET UNSTRUCTURED_GRID
POINTS   3280  float
0.0000000E+00  0.0000000E+00  0.1000000E+00
0.2000000E+01  0.0000000E+00  0.1000000E+00
0.2000000E+01  0.1000000E+01  0.1000000E+00
0.0000000E+00  0.1000000E+01  0.1000000E+00
0.1000000E+01  0.0000000E+00  0.1000000E+00
0.1000000E+01  0.1000000E+01  0.1000000E+00
0.1500000E+01  0.5000000E+00  0.1600000E+01
0.1500000E+01  0.0000000E+00  0.1000000E+00
0.1723284E+01  0.3570951E+00  0.1000000E+00
0.1500000E+01  0.2500000E+00  0.1000000E+00
0.1515103E+01  0.2763186E+00  0.1000000E+00
0.1594866E+01  0.2826386E+00  0.1000000E+00
0.1562500E+01  0.1875000E+00  0.1000000E+00
0.1534357E+01  0.1819434E+00  0.1000000E+00
0.1561083E+01  0.3343258E+00  0.4307839E+00
0.1750000E+01  0.0000000E+00  0.1000000E+00
0.1503267E+01  0.1622339E+00  0.1000000E+00
0.1514910E+01  0.2261192E+00  0.1000000E+00
0.1610795E+01  0.1290247E+00  0.1000000E+00
0.1539062E+01  0.1536458E+00  0.1000000E+00
0.1510772E+01  0.1982718E+00  0.1000000E+00
0.1541862E+01  0.2179813E+00  0.1000000E+00
0.1475030E+01  0.2178147E+00  0.1000000E+00
0.1539206E+01  0.2578835E+00  0.1000000E+00
0.1521085E+01  0.2465697E+00  0.1000000E+00
0.1496499E+01  0.2146241E+00  0.1000000E+00
0.1481433E+01  0.1870688E+00  0.1000000E+00
0.1586261E+01  0.1960616E+00  0.1000000E+00
0.1460896E+01  0.2899333E+00  0.1000000E+00
0.1542195E+01  0.2867649E+00  0.1000000E+00
0.1486080E+01  0.2754813E+00  0.1000000E+00
0.1536278E+01  0.3247610E+00  0.3990705E+00
0.1510131E+01  0.3295675E+00  0.5068801E+00
0.1455545E+01  0.2514402E+00  0.1000000E+00
0.1610995E+01  0.1909452E+00  0.1000000E+00
0.1564462E+01  0.2395252E+00  0.1000000E+00
0.1571524E+01  0.3026484E+00  0.1000000E+00
0.1613657E+01  0.2555806E+00  0.1000000E+00
0.1633998E+01  0.2714643E+00  0.1000000E+00
0.1534973E+01  0.3650914E+00  0.8716196E+00
0.1583157E+01  0.2286349E+00  0.1000000E+00
0.1586501E+01  0.1581416E+00  0.1000000E+00
0.1651985E+01  0.2274641E+00  0.1000000E+00
0.1619170E+01  0.2936434E+00  0.1000000E+00
0.1678889E+01  0.2641389E+00  0.1000000E+00
0.1642286E+01  0.2930521E+00  0.1000000E+00
0.1526415E+01  0.3446283E+00  0.6685710E+00
0.1662420E+01  0.3044259E+00  0.1000000E+00
0.1636786E+01  0.2469276E+00  0.1000000E+00
0.1588953E+01  0.3366240E+00  0.3023384E+00
0.1616427E+01  0.3314099E+00  0.1000000E+00
0.1598305E+01  0.3102698E+00  0.1000000E+00
0.1655410E+01  0.2614708E+00  0.1000000E+00
0.1487553E+01  0.3072167E+00  0.2004883E+00
0.1520126E+01  0.3036443E+00  0.1389768E+00
0.1477894E+01  0.2544664E+00  0.1000000E+00
0.1567847E+01  0.2133479E+00  0.1000000E+00
0.1663947E+01  0.3299725E+00  0.1000000E+00
0.1567022E+01  0.2696000E+00  0.1000000E+00
0.1678598E+01  0.3509559E+00  0.1000000E+00
0.1611933E+01  0.3827205E+00  0.6143693E+00
0.1640491E+01  0.3197373E+00  0.1000000E+00
0.1588015E+01  0.2526666E+00  0.1000000E+00
0.1708471E+01  0.3144917E+00  0.1000000E+00
0.1606944E+01  0.3564315E+00  0.3981668E+00
0.1604614E+01  0.2314093E+00  0.1000000E+00
0.1643491E+01  0.3631133E+00  0.1252148E+00
0.2000000E+01  0.5000000E+00  0.1000000E+00
0.1494727E+01  0.3621796E+00  0.8866649E+00
0.1701807E+01  0.3477237E+00  0.1000000E+00
0.1572156E+01  0.3701847E+00  0.7728079E+00
0.1688392E+01  0.3285111E+00  0.1000000E+00
0.1695932E+01  0.3904821E+00  0.1000000E+00
0.1636337E+01  0.3418163E+00  0.1000000E+00
0.1505941E+01  0.9448485E-01  0.1000000E+00
0.1423727E+01  0.1910920E+00  0.1000000E+00
0.1481447E+01  0.3359634E+00  0.5780416E+00
0.1441613E+01  0.3726133E+00  0.8636350E+00
0.1466699E+01  0.3599060E+00  0.8224259E+00
0.1476682E+01  0.4107296E+00  0.1280766E+01
0.1434448E+01  0.3273535E+00  0.3211032E+00
0.1464523E+01  0.3867258E+00  0.1071638E+01
0.1456903E+01  0.3373583E+00  0.5383880E+00
0.1454188E+01  0.3132491E+00  0.2134522E+00
0.1424069E+01  0.2919612E+00  0.1000000E+00
0.1490969E+01  0.3884111E+00  0.1129988E+01
0.1428051E+01  0.4202828E+00  0.1167567E+01
0.1513790E+01  0.3782958E+00  0.1037422E+01
0.1547789E+01  0.4092466E+00  0.1205500E+01
0.1535154E+01  0.3889763E+00  0.1091422E+01
0.1512699E+01  0.4170463E+00  0.1335904E+01
0.1441554E+01  0.3983607E+00  0.1084509E+01
0.1395941E+01  0.3853832E+00  0.7012997E+00
0.1420578E+01  0.3854393E+00  0.8712979E+00
0.1408336E+01  0.3518173E+00  0.4614820E+00
0.1549967E+01  0.3074339E+00  0.1158120E+00
0.1651639E+01  0.4114272E+00  0.4435189E+00
0.1668616E+01  0.3788978E+00  0.1000000E+00
0.1674624E+01  0.4027285E+00  0.1016705E+00
0.1706988E+01  0.4343785E+00  0.1000000E+00
0.1673984E+01  0.4357547E+00  0.3100769E+00
0.1695270E+01  0.4139894E+00  0.1000000E+00
0.1737273E+01  0.4034108E+00  0.1000000E+00
0.1645630E+01  0.3875965E+00  0.3309006E+00
0.1625874E+01  0.4052508E+00  0.6691852E+00
0.1627808E+01  0.4540126E+00  0.9081400E+00
0.1587158E+01  0.4136289E+00  0.1035381E+01
0.1633718E+01  0.4293591E+00  0.7423554E+00
0.1651607E+01  0.4466828E+00  0.6314699E+00
0.1605650E+01  0.4356658E+00  0.1026220E+01
0.1682168E+01  0.4808869E+00  0.3418535E+00
0.1671711E+01  0.4594749E+00  0.4327346E+00
0.1698428E+01  0.4596870E+00  0.1000000E+00
0.1646221E+01  0.4851828E+00  0.7899930E+00
0.1607747E+01  0.4151289E+00  0.8945281E+00
0.1584205E+01  0.4841185E+00  0.1324650E+01
0.1747573E+01  0.4622079E+00  0.1000000E+00
0.1568396E+01  0.4481495E+00  0.1323756E+01
0.1601760E+01  0.4629165E+00  0.1160111E+01
0.1723356E+01  0.4540167E+00  0.1000000E+00
0.1732897E+01  0.4294241E+00  0.1000000E+00
0.1722218E+01  0.4972746E+00  0.1000000E+00
0.1715121E+01  0.4754441E+00  0.1000000E+00
0.1584567E+01  0.4345797E+00  0.1171320E+01
0.1563465E+01  0.4258523E+00  0.1242787E+01
0.1534166E+01  0.4440258E+00  0.1438735E+01
0.1615090E+01  0.4918227E+00  0.1100779E+01
0.1717469E+01  0.4134541E+00  0.1000000E+00
0.1718488E+01  0.3909170E+00  0.1000000E+00
0.1741353E+01  0.3769080E+00  0.1000000E+00
0.1781199E+01  0.4241746E+00  0.1000000E+00
0.2000000E+01  0.2500000E+00  0.1000000E+00
0.1756308E+01  0.4199875E+00  0.1000000E+00
0.1762447E+01  0.3937207E+00  0.1000000E+00
0.1765097E+01  0.4438197E+00  0.1000000E+00
0.1807974E+01  0.4625425E+00  0.1000000E+00
0.1789176E+01  0.4471344E+00  0.1000000E+00
0.1514158E+01  0.1287364E+00  0.1000000E+00
0.1777674E+01  0.4803377E+00  0.1000000E+00
0.1811145E+01  0.4395021E+00  0.1000000E+00
0.1850404E+01  0.4566449E+00  0.1000000E+00
0.1748483E+01  0.3522599E+00  0.1000000E+00
0.1731235E+01  0.3304535E+00  0.1000000E+00
0.1777870E+01  0.3654441E+00  0.1000000E+00
0.1748149E+01  0.2821176E+00  0.1000000E+00
0.1732875E+01  0.3039003E+00  0.1000000E+00
0.1708314E+01  0.2807181E+00  0.1000000E+00
0.1767650E+01  0.3193756E+00  0.1000000E+00
0.1372661E+01  0.1704076E+00  0.1000000E+00
0.1411157E+01  0.2494459E+00  0.1000000E+00
0.1448000E+01  0.2246098E+00  0.1000000E+00
0.1360382E+01  0.2278583E+00  0.1000000E+00
0.1433680E+01  0.2431125E+00  0.1000000E+00
0.1388814E+01  0.2314916E+00  0.1000000E+00
0.1314549E+01  0.2124991E+00  0.1000000E+00
0.1404157E+01  0.2007613E+00  0.1000000E+00
0.1415035E+01  0.1072182E+00  0.1000000E+00
0.1520299E+01  0.1091515E+00  0.1000000E+00
0.1459010E+01  0.1690672E+00  0.1000000E+00
0.1436337E+01  0.2690050E+00  0.1000000E+00
0.1443480E+01  0.1263360E+00  0.1000000E+00
0.1625000E+01  0.0000000E+00  0.1000000E+00
0.1414954E+01  0.2197329E+00  0.1000000E+00
0.1335299E+01  0.2266424E+00  0.1000000E+00
0.1396801E+01  0.1612344E+00  0.1000000E+00
0.1792033E+01  0.3934232E+00  0.1000000E+00
0.1541310E+01  0.1264947E+00  0.1000000E+00
0.1483859E+01  0.1256971E+00  0.1000000E+00
0.1500341E+01  0.1139400E+00  0.1000000E+00
0.1498380E+01  0.1421255E+00  0.1000000E+00
0.1478242E+01  0.1468909E+00  0.1000000E+00
0.1453147E+01  0.1972183E+00  0.1000000E+00
0.1348833E+01  0.2067866E+00  0.1000000E+00
0.1368157E+01  0.2800764E+00  0.1000000E+00
0.1250000E+01  0.0000000E+00  0.1000000E+00
0.1496272E+01  0.2780308E-01  0.1000000E+00
0.1430228E+01  0.1622338E+00  0.1000000E+00
0.1544491E+01  0.1012427E+00  0.1000000E+00
0.1505524E+01  0.5428530E-01  0.1000000E+00
0.1576405E+01  0.1180891E+00  0.1000000E+00
0.1526885E+01  0.8834234E-01  0.1000000E+00
0.1558557E+01  0.6358195E-01  0.1000000E+00
0.1372206E+01  0.9428859E-01  0.1000000E+00
0.1414069E+01  0.8636887E-01  0.1000000E+00
0.1351230E+01  0.1581055E+00  0.1000000E+00
0.1371634E+01  0.2528708E+00  0.1000000E+00
0.1392978E+01  0.2694234E+00  0.1000000E+00
0.1321668E+01  0.2603105E+00  0.1000000E+00
0.1392566E+01  0.3027057E+00  0.1000000E+00
0.1345601E+01  0.2495441E+00  0.1000000E+00
0.1349996E+01  0.1827855E+00  0.1000000E+00
0.1475238E+01  0.9618066E-01  0.1000000E+00
0.1487372E+01  0.4556180E+00  0.1520154E+01
0.1432024E+01  0.3509343E+00  0.5934516E+00
0.1619231E+01  0.5383449E+00  0.1011762E+01
0.1532505E+01  0.4233173E+00  0.1339870E+01
0.1547332E+01  0.4788657E+00  0.1499238E+01
0.1627786E+01  0.4750493E+00  0.9643064E+00
0.1750658E+01  0.4911384E+00  0.1000000E+00
0.1783313E+01  0.5336292E+00  0.1000000E+00
0.1744147E+01  0.5299352E+00  0.1000000E+00
0.1772978E+01  0.5077787E+00  0.1000000E+00
0.1739682E+01  0.5092411E+00  0.1000000E+00
0.1715917E+01  0.5251974E+00  0.1000000E+00
0.1809547E+01  0.4999146E+00  0.1000000E+00
0.1486188E+01  0.5335558E+00  0.1550621E+01
0.1695320E+01  0.5058771E+00  0.1680790E+00
0.1793562E+01  0.5145404E+00  0.1000000E+00
0.1827482E+01  0.5355643E+00  0.1000000E+00
0.1805457E+01  0.5332234E+00  0.1000000E+00
0.1812320E+01  0.5734372E+00  0.1000000E+00
0.1794794E+01  0.5557356E+00  0.1000000E+00
0.1637325E+01  0.5533192E+00  0.7862073E+00
0.1761146E+01  0.5591762E+00  0.1000000E+00
0.1789115E+01  0.5788851E+00  0.1000000E+00
0.1693317E+01  0.6123782E+00  0.1000000E+00
0.1522396E+01  0.5359490E+00  0.1532728E+01
0.1814654E+01  0.6254783E+00  0.1000000E+00
0.1726166E+01  0.5505978E+00  0.1000000E+00
0.1691322E+01  0.5307786E+00  0.1918271E+00
0.1516987E+01  0.5143680E+00  0.1581438E+01
0.1661909E+01  0.5147686E+00  0.6087765E+00
0.1761865E+01  0.6508066E+00  0.1000000E+00
0.1692174E+01  0.5698207E+00  0.1000000E+00
0.1780214E+01  0.6037461E+00  0.1000000E+00
[...]
POINT_DATA    3280
SCALARS hauteur float
LOOKUP_TABLE DEFAULT
       5.7154464E-01
       1.1844960E+00
       1.1928542E+00
       5.7534372E-01
       5.4506518E-01
       5.4444185E-01
       8.3502409E-04
       1.0190729E+00
       1.8099286E-01
       7.1698311E-01
       5.7453212E-01
       4.0398961E-01
       7.8182048E-01
       8.2354775E-01
       9.5965413E-02
       1.0853628E+00
       8.5674164E-01
       7.4546106E-01
       9.2760762E-01
       8.7328383E-01
       8.0117289E-01
       7.3230640E-01
       7.9749168E-01
       6.1055696E-01
       6.8108273E-01
       7.8131428E-01
       8.3874930E-01
       7.6489084E-01
       6.6862957E-01
       4.5140704E-01
       6.4416622E-01
       1.7333971E-01
       2.1200788E-01
       7.7944721E-01
       7.6463968E-01
       6.4269730E-01
       2.8401384E-01
       5.0348106E-01
       4.3374763E-01
       1.1783116E-02
       6.7795183E-01
       8.5751997E-01
       6.5786035E-01
       3.0962825E-01
       4.9834505E-01
       3.4572592E-01
       6.1894782E-02
       3.3267383E-01
       5.7910733E-01
       7.5930375E-02
       1.2493044E-01
       2.1362555E-01
       4.9569947E-01
       4.6500707E-01
       3.6875928E-01
       7.3489448E-01
       7.2129373E-01
       1.3524489E-01
       5.0241645E-01
       6.7008149E-02
       4.0956780E-03
       2.0662685E-01
       5.6711560E-01
       3.4369463E-01
       2.2550177E-02
       6.6541787E-01
       2.3768672E-02
       1.1370763E+00
       8.9852072E-02
       1.6579455E-01
       8.4613358E-03
       2.1800685E-01
       4.6300161E-02
       7.7355441E-02
       9.7195396E-01
       8.7091241E-01
       2.5634361E-01
       1.7572459E-01
       1.4413517E-01
       1.8779902E-02
       5.5130617E-01
       7.1428971E-02
       3.2299235E-01
       5.1746158E-01
       7.2176915E-01
       3.2843949E-02
       1.1641888E-01
       2.2122907E-02
       3.6294019E-04
       2.3412594E-03
       4.4356581E-03
       1.1846722E-01
       4.7519642E-01
       2.7669905E-01
       5.5612109E-01
       2.7341469E-01
       3.7124941E-03
       1.6016550E-02
       7.0538616E-03
       1.2321745E-01
       3.9041780E-02
       2.5548452E-02
       2.0749315E-01
       4.3764383E-03
       7.1969437E-04
       1.0218763E-03
       1.6655879E-04
       9.2404663E-04
       1.1080899E-02
       2.0719884E-04
       1.6254567E-01
       6.8200622E-02
       1.5347919E-01
       1.9884058E-02
       2.7690867E-04
       2.2374261E-04
       4.2949180E-01
       1.9667656E-04
       2.5822555E-04
       2.5993433E-01
       2.6741706E-01
       3.5423515E-01
       3.0334391E-01
       1.8380945E-04
       1.8812424E-04
       2.5444632E-04
       1.4449811E-03
       9.0165857E-02
       1.1695746E-01
       2.4886403E-01
       5.3436552E-01
       1.1185911E+00
       3.5466744E-01
       3.6651456E-01
       4.9085117E-01
       8.3895452E-01
       6.7834921E-01
       9.2168221E-01
       6.2907783E-01
       7.5700426E-01
       1.0018630E+00
       3.5486545E-01
       3.4687372E-01
       4.6597020E-01
       6.7535670E-01
       5.0474576E-01
       4.9675778E-01
       5.4216902E-01
       8.9430052E-01
       8.4929438E-01
       8.3207468E-01
       8.8446717E-01
       8.2479180E-01
       8.7084228E-01
       8.8222345E-01
       8.7366833E-01
       9.2501071E-01
       9.4867725E-01
       8.7242097E-01
       7.7444643E-01
       9.1517767E-01
       1.0323601E+00
       8.5497306E-01
       8.8643891E-01
       8.9683042E-01
       5.2986376E-01
       9.2115773E-01
       9.2798312E-01
       9.4304641E-01
       9.0463275E-01
       8.9019663E-01
       8.4548404E-01
       8.8612417E-01
       8.8495861E-01
       7.6680610E-01
       1.0036076E+00
       8.9291710E-01
       9.5424518E-01
       9.9156563E-01
       9.3502563E-01
       9.7414509E-01
       9.7878499E-01
       9.2368866E-01
       9.3730903E-01
       8.9229422E-01
       8.8403478E-01
       8.6056980E-01
       8.9728528E-01
       8.4188733E-01
       8.9189356E-01
       8.8948399E-01
       9.6146006E-01
       3.8658674E-03
       3.3578854E-01
       9.4907770E-04
       5.0108535E-04
       1.7438721E-04
       2.2793787E-03
       4.9435497E-01
       6.6247856E-01
       4.3823296E-01
       6.4328003E-01
       4.5133199E-01
       2.8010274E-01
       9.1919632E-01
       1.5228698E-03
       2.0304880E-01
       8.1251764E-01
       9.4314144E-01
       8.2388812E-01
       6.9262988E-01
       6.4057094E-01
       1.8991341E-03
       4.3321613E-01
       5.4117084E-01
       1.8471039E-02
       3.7128531E-04
       6.7109742E-01
       2.5214926E-01
       1.3077562E-01
       2.8140237E-04
       6.8218787E-02
       4.5154654E-01
       1.7477973E-02
       4.4072215E-01
       1.8183264E-04
       2.9736359E-02
       2.3797371E-01
       2.3739384E-04
       4.0498874E-01
       1.4955500E-01
       2.8186433E-01
       4.2014320E-01
       5.8918566E-01
       7.7168995E-01
       9.5805151E-01
       1.0161590E+00
       7.9874092E-01
       8.5026980E-01
       6.1310083E-01
       3.4100600E-01
       3.8250794E-01
       8.1227321E-01
       6.5894917E-01
       7.6153261E-01
       8.0860962E-01
       6.7977778E-01
       6.0868213E-01
       6.4720916E-01
       5.0034537E-01
       8.8477031E-01
       8.8512241E-01
       9.0854909E-01
       8.9396437E-01
       8.3909857E-01
       9.0358522E-01
       9.9823790E-01
       9.6479487E-01
       9.8878719E-01
       1.0128573E+00
       1.0261451E+00
       1.0027670E+00
       9.6045533E-01
       9.7502011E-01
       1.0429124E+00
       9.2584511E-01
       1.0164248E+00
       9.4655472E-01
       1.0206004E+00
       1.0491786E+00
       9.9336028E-01
       8.4327944E-01
       8.9755180E-01
       8.4748572E-01
       9.7905865E-01
       9.3005538E-01
       8.9161676E-01
       8.9948626E-01
       8.6728900E-01
       8.8062696E-01
       8.5088872E-01
       8.8689318E-01
       9.5226605E-01
       9.4907435E-01
       9.0822676E-01
       9.7457270E-01
       9.0964886E-01
       9.8792620E-01
       8.1634300E-01
       7.3140202E-01
       7.9879489E-01
       7.0906572E-01
       9.0317309E-01
       4.5193997E-03
       7.1462535E-04
       2.4304301E-02
       2.8003787E-04
       1.6218609E-04
       1.4478574E-04
       1.8108254E-04
       8.6621465E-03
       2.1732962E-04
       1.8281026E-04
       8.0057333E-01
       9.5415487E-01
       1.0257578E+00
       5.4669454E-01
       8.3726438E-02
       7.5789727E-01
       6.1460646E-01
       1.2864021E-02
       2.3194956E-04
       8.4258791E-01
       2.0948989E-01
       7.4197803E-01
       1.6369182E-01
       5.5618661E-01
       5.6498370E-01
       3.7106701E-01
       6.8097622E-01
       9.1399161E-01
       1.1116438E+00
       7.1362389E-01
       9.2487310E-01
       7.1136475E-01
       5.3965681E-01
       9.6489784E-02
       1.0920792E+00
       7.1668978E-01
       6.7135424E-01
       7.9310851E-01
       3.2957986E-01
       4.9411842E-02
       1.0137622E+00
       1.1486845E-03
       8.9341034E-01
       7.5967728E-01
       2.1597431E-04
       8.8820270E-01
       9.4526266E-01
       4.9227546E-01
       6.5107626E-01
       1.7517730E-01
       6.3995013E-02
       1.0369952E+00
       6.1615684E-01
       7.9582593E-01
       5.2378580E-01
       5.0486233E-01
       7.3583575E-01
       8.8390868E-01
       8.6959249E-01
       6.6053322E-01
       9.3664312E-01
       9.0478205E-01
       7.8338229E-01
       9.0067527E-01
       1.0126990E+00
       1.0085471E+00
       1.0295656E+00
       1.0346126E+00
       1.0424056E+00
       8.2725915E-01
       7.6728424E-01
       9.3754934E-01
       9.5596751E-01
       9.2171604E-01
       9.4031676E-01
       9.9368310E-01
       9.6218762E-01
       9.7936286E-01
       1.0102727E+00
       1.0154843E+00
       1.0091118E+00
       9.9645279E-01
       8.2133578E-01
       7.7686321E-01
       8.7830387E-01
       9.1003553E-01
       9.2830063E-01
       9.0021302E-01
       9.1259270E-01
       9.0070216E-01
       9.1602799E-01
       9.3316276E-01
       8.9649215E-01
       9.1895242E-01
       8.7665185E-01
       9.0709405E-01
       8.5085880E-01
       8.7937165E-01
       8.7632434E-01
       8.8499989E-01
       8.8891626E-01
       8.3757566E-01
       8.6915319E-01
       8.7005462E-01
       8.0396165E-01
       8.4714281E-01
       8.5464185E-01
       7.8850709E-01
       8.7538822E-01
       8.8368874E-01
       8.3726599E-01
       8.6550107E-01
       9.4527745E-01
       9.2904454E-01
       8.7474736E-01
       6.9338648E-01
       8.9754486E-01
       9.7690201E-01
       9.6019408E-01
       3.7699144E-01
       9.4234506E-01
       9.5489909E-01
       9.5530698E-01
       9.4573374E-01
       5.7057223E-01
       5.8045752E-01
       9.4994908E-01
       9.3110697E-01
       9.2105537E-01
       9.6045513E-01
       9.4006805E-01
       9.1172909E-01
       8.4668490E-01
       8.6431591E-01
       8.2844088E-01
       9.7761066E-01
       9.4039193E-01
       8.7662766E-01
       9.1108362E-01
       8.6342874E-01
       9.9157592E-01
       7.6116179E-01
       9.7334454E-01
       7.9895621E-01
       7.0825880E-01
       9.5948748E-01
       8.2813746E-01
       8.1897522E-01
       7.9688301E-01
       7.0982628E-01
       7.3109444E-01
       6.6961117E-01
       7.5552171E-01
       9.3361352E-01
       9.8010935E-01
       7.6583267E-01
       7.8983296E-01
       7.6143701E-01
       6.6805382E-01
       6.9205251E-01
       7.2416219E-01
       6.3689635E-01
       8.4978312E-01
       9.7694368E-01
       7.3312287E-01
       7.6826364E-01
       6.8792957E-01
       6.7180245E-01
       6.5386685E-01
       4.6760222E-01
       9.8492502E-01
       6.1516903E-01
       8.7798705E-01
       9.6340240E-01
       6.4257759E-01
       6.0588979E-01
       4.0139466E-01
       9.8335771E-01
       9.4823203E-01
       6.2025847E-01
       5.7053028E-01
       5.8562485E-01
       5.6124803E-01
       5.6061400E-01
       6.1309011E-01
       4.1859701E-01
       7.7059082E-01
       1.3463758E-01
       7.5435729E-01
       2.7607380E-01
       3.5523538E-01
       2.0992701E-01
       5.8080230E-01
       5.4314882E-01
       1.8076407E-01
       5.7583315E-01
       5.7865922E-01
       5.4579436E-01
       5.4973763E-01
       5.8120903E-02
       1.8746204E-01
       9.5451078E-02
       1.0670339E-02
       4.4092123E-02
       4.1833687E-02
       5.8668974E-01
       6.2400385E-01
       5.6311848E-01
       5.5477335E-01
       1.4851954E-02
       3.1274083E-03
       6.5691018E-01
       5.4519405E-01
       5.4666175E-01
       5.6340940E-01
       4.2690697E-03
       5.3941704E-01
       5.6758018E-01
       5.9048352E-01
       2.0363943E-02
       5.4151922E-01
       5.4099527E-01
       5.3912158E-01
       5.3990607E-01
       5.4147442E-01
       5.3958500E-01
       5.4031737E-01
       5.4123214E-01
       5.4150759E-01
       5.4249978E-01
       5.4959288E-01
       5.5548612E-01
       5.3938073E-01
       5.3994159E-01
       5.3995336E-01
       5.4012666E-01
       5.3925304E-01
       5.3822118E-02
       9.2629251E-01
       1.0539082E+00
       1.1303517E+00
       1.0846416E+00
       1.0053351E+00
       1.1175753E+00
       1.0467607E+00
       9.3783108E-01
       8.5310476E-01
       8.4214800E-01
       8.0358339E-01
       9.9576865E-01
       1.0514364E+00
       9.3337925E-01
       8.7876960E-01
       8.9839755E-01
       1.0196428E+00
       9.2119082E-01
       9.4776128E-01
       1.0987159E+00
       9.1450820E-01
       9.4464022E-01
       9.9993514E-01
       9.5360506E-01
       9.8994908E-01
       7.5033182E-03
       2.1105062E-03
       5.1270687E-03
       3.6214702E-04
       7.9071496E-03
       1.5781175E-03
       3.0851650E-03
       2.5891664E-04
       1.7273012E-04
       2.2185878E-03
       4.4892412E-04
       2.3105803E-04
       2.1356764E-04
       6.3025259E-04
       3.8999360E-04
       3.4214050E-03
       6.0343324E-02
       1.7602702E-03
       4.3839011E-03
       2.6090226E-02
       1.5643345E-02
       2.4339188E-02
       1.9881430E-02
       2.2900607E-01
       9.6240850E-02
       3.8359389E-01
       2.7117505E-01
       5.4795181E-01
       4.8134337E-01
       3.9494414E-01
       7.3436810E-01
       4.1072638E-01
       6.3842964E-01
       7.2412096E-01
       6.8421729E-01
       6.8427241E-01
       5.6088739E-01
       5.0349147E-01
       8.2120548E-01
       7.6578386E-01
       8.0677586E-01
       2.5276281E-01
       7.7251670E-01
       6.8402548E-01
       7.8406989E-01
       4.9260610E-01
       7.5762758E-01
       8.5359344E-01
       8.1841662E-01
       8.3114899E-01
       5.8658644E-01
       3.3332757E-01
       1.6624812E-01
       1.3133991E-01
       2.4781983E-01
       5.2851954E-01
       3.8698846E-01
       2.4410645E-01
       4.0126905E-01
       2.1125094E-01
       8.7255471E-02
       1.1514979E-01
       5.5862764E-02
       6.8789285E-01
       8.3018262E-01
       1.0235207E+00
       9.4880136E-01
       8.4166967E-01
       7.5997983E-02
       2.7004674E-01
       8.8716178E-01
       9.8812241E-01
       6.4448751E-01
       7.3628351E-01
       7.8653913E-01
       9.6107625E-01
       8.9873288E-01
       8.9771492E-01
       9.1250894E-01
       8.5149532E-01
       1.0109366E+00
       1.0383512E+00
       9.2406345E-01
       9.8770217E-01
       1.0614458E+00
       1.0420978E+00
       1.0150915E+00
       1.1051664E+00
       1.0575741E+00
       1.0766510E+00
       1.0725727E+00
       1.0677130E+00
       1.0155325E+00
       7.5507299E-01
       7.1260821E-01
       7.5321748E-01
       9.9321576E-01
       1.0261661E+00
       1.0390307E+00
       1.0513599E+00
       6.9629535E-01
       9.0713021E-01
       8.7977885E-01
       9.8444537E-01
       9.8469659E-01
       9.6727075E-01
       9.9472433E-01
       9.9699716E-01
       1.0143087E+00
       8.8437220E-01
       8.1866289E-01
       7.4460429E-01
       7.6999204E-01
       7.9521727E-01
       6.8339473E-01
       7.6467761E-01
       7.3899903E-01
       7.3886164E-01
       7.1430635E-01
       7.2504687E-01
       6.6490044E-01
       6.8742002E-01
       6.4044190E-01
       7.6179569E-01
       7.1139168E-01
       5.7024607E-01
       6.6816920E-01
       7.7680497E-01
       6.4696226E-01
       8.9596927E-01
       7.1992508E-01
       7.6367647E-01
       6.7888288E-01
       6.7388181E-01
       8.6297066E-01
       8.7435227E-01
       8.2727057E-01
       8.8981199E-01
       8.1067996E-01
       6.2351254E-01
       9.7680880E-01
       8.7073873E-01
       8.8897965E-01
       6.0920380E-01
       7.1773046E-01
       5.5225668E-01
       5.3932132E-01
       5.4020684E-01
       5.3879331E-01
       5.3918163E-01
       5.4129235E-01
       5.4050020E-01
       5.3952140E-01
       5.4198330E-01
       5.3926813E-01
       5.3897162E-01
       5.4007317E-01
       5.4678484E-01
       5.4701798E-01
       5.4507533E-01
       5.6202051E-01
       5.7309073E-01
       5.5686627E-01
       5.4015185E-01
       5.3954392E-01
       1.0356089E+00
       1.1790667E+00
       1.0856136E+00
       1.0731936E+00
       2.5133866E-04
       1.9027491E-04
       2.9794899E-02
       5.8010737E-02
       3.0406975E-04
       1.0563896E-03
       2.8085188E-02
       1.1579545E-02
       7.3434389E-03
       1.7196248E-02
       6.8272860E-01
       7.6777869E-02
       1.7498509E-01
       8.9414975E-01
       5.6937321E-02
       2.7561330E-01
       9.7443917E-01
       9.6732147E-01
       1.0011854E+00
       9.0966146E-01
       1.0831093E+00
       1.0101524E+00
       9.9542618E-01
       1.0530041E+00
       1.0554075E+00
       1.0356987E+00
       9.8272805E-01
       9.5095108E-01
       1.0931044E+00
       1.0790967E+00
       1.1969725E+00
       8.9614796E-01
       8.9099061E-01
       8.4042498E-01
       7.6272844E-01
       2.5200529E-01
       3.9657752E-01
       3.8434956E-01
       5.4465986E-01
       2.0424530E-01
       2.5316702E-01
       1.0380773E-01
       1.0227894E+00
       9.6703787E-01
       7.9297018E-01
       9.1869778E-01
       1.0531384E+00
       1.0190174E+00
       9.6269914E-01
       1.0553148E+00
       9.6171620E-01
       8.9531766E-01
       8.3381910E-01
       8.9269544E-01
       7.4520484E-01
       8.8839654E-01
       1.0491444E+00
       8.2260801E-01
       9.4254599E-01
       8.0557845E-01
       9.6468532E-01
       9.4768954E-01
       9.8578218E-01
       1.0732098E+00
       1.0429222E+00
       1.0868789E+00
       1.0292094E+00
       1.0767974E+00
       1.1051249E+00
       1.0251644E+00
       9.0215646E-01
       9.0426429E-01
       8.4559310E-01
       1.0049726E+00
       9.4272792E-01
       9.3150147E-01
       8.6438473E-01
       8.6318811E-01
       8.1369727E-01
       6.1422484E-01
       8.6579067E-01
       1.0455025E+00
       1.0753642E+00
       8.1292078E-01
       7.9226189E-01
       8.5069778E-01
       8.0635127E-01
       7.7424062E-01
       8.4510232E-01
       8.2621461E-01
       7.3872025E-01
       7.5160201E-01
       9.2672234E-01
       9.1100819E-01
       8.9281333E-01
       9.0544606E-01
       8.5570581E-01
       9.3317251E-01
       9.2685395E-01
       8.7645723E-01
       9.0762378E-01
       6.0305046E-01
       5.3949159E-01
       5.4905496E-01
       5.5281015E-01
       5.3915176E-01
       5.4579565E-01
       5.4322547E-01
       5.4408106E-01
       5.4436165E-01
       5.4111555E-01
       5.4762448E-01
       5.3931795E-01
       5.4543362E-01
       5.4797071E-01
       5.3986647E-01
       5.7494679E-01
       5.4721140E-01
       5.4661615E-01
       5.4242418E-01
       5.4134684E-01
       5.4268804E-01
       5.4677860E-01
       5.4339016E-01
       5.3918606E-01
       5.4259468E-01
       5.3854552E-01
       5.4773199E-01
       5.4064976E-01
       5.4554575E-01
       5.4402151E-01
       5.4526371E-01
       5.4304023E-01
       5.4515474E-01
       5.4275852E-01
       5.4506045E-01
       5.4340924E-01
       5.3913280E-01
       5.4284044E-01
       5.4631574E-01
       5.4066445E-01
       5.4186151E-01
       5.5772053E-01
       5.4750537E-01
       5.5134369E-01
       5.4853607E-01
       5.4440959E-01
       5.4724024E-01
       5.3798152E-01
       5.3691303E-01
       5.4764020E-01
       5.4830790E-01
       5.4881248E-01
       5.5107533E-01
       5.4694410E-01
       5.4597471E-01
       5.4499577E-01
       5.3838030E-01
       5.4109782E-01
       5.3921393E-01
       5.3990226E-01
       5.4379369E-01
       5.4509546E-01
       5.3982349E-01
       5.3845362E-01
       5.5548831E-01
       5.4379510E-01
       5.5445771E-01
       5.4289814E-01
       5.4655051E-01
       5.4435925E-01
       5.4650444E-01
       5.4083374E-01
       5.3847928E-01
       5.3685697E-01
       5.4168396E-01
       5.4510034E-01
       5.8497151E-01
       5.5241153E-01
       5.6921996E-01
       6.0165446E-01
       6.1999157E-01
       5.7378931E-01
       6.6079311E-01
       5.5848859E-01
       6.1788025E-01
       6.0146596E-01
       5.8014536E-01
       6.4772978E-01
       6.4373026E-01
       6.9652907E-01
       7.1454254E-01
       6.9500127E-01
       6.4345245E-01
       6.0132533E-01
       5.8679267E-01
       7.7601353E-01
       6.6264390E-01
       5.5304290E-01
       5.4835402E-01
       5.8071328E-01
       5.4557071E-01
       5.4029078E-01
       5.3979045E-01
       5.3900519E-01
       5.3871389E-01
       5.3857120E-01
       5.3899337E-01
       5.3910045E-01
       5.3858035E-01
       5.4229394E-01
       5.3823931E-01
       5.4094381E-01
       5.3946668E-01
       5.4334909E-01
       5.3831763E-01
       5.3988599E-01
       5.3854073E-01
       5.3782304E-01
       5.4105915E-01
       5.3800103E-01
       5.3991457E-01
       5.4016279E-01
       5.4013828E-01