# vtk DataFile Version 3.0
# Solution du M1 TR
ASCII
DATASET UNSTRUCTURED_GRID
POINTS   3280  float
0.0000000E+00  0.0000000E+00  0.2205719E-01
0.2000000E+01  0.0000000E+00  0.1960159E+01
0.2000000E+01  0.1000000E+01  0.1960229E+01
0.0000000E+00  0.1000000E+01  0.2216247E-01
0.1000000E+01  0.0000000E+00  0.9926817E+00
0.1000000E+01  0.1000000E+01  0.9923789E+00
0.1500000E+01  0.5000000E+00  0.1495794E+01
0.1500000E+01  0.0000000E+00  0.1473916E+01
0.1723284E+01  0.3570951E+00  0.1706818E+01
0.1500000E+01  0.2500000E+00  0.1494281E+01
0.1515103E+01  0.2763186E+00  0.1509189E+01
0.1594866E+01  0.2826386E+00  0.1585352E+01
0.1562500E+01  0.1875000E+00  0.1552918E+01
0.1534357E+01  0.1819434E+00  0.1525473E+01
0.1561083E+01  0.3343258E+00  0.1553503E+01
0.1750000E+01  0.0000000E+00  0.1715700E+01
0.1503267E+01  0.1622339E+00  0.1494812E+01
0.1514910E+01  0.2261192E+00  0.1508178E+01
0.1610795E+01  0.1290247E+00  0.1594752E+01
0.1539062E+01  0.1536458E+00  0.1528311E+01
0.1510772E+01  0.1982718E+00  0.1503396E+01
0.1541862E+01  0.2179813E+00  0.1533841E+01
0.1475030E+01  0.2178147E+00  0.1469850E+01
0.1539206E+01  0.2578835E+00  0.1531922E+01
0.1521085E+01  0.2465697E+00  0.1514361E+01
0.1496499E+01  0.2146241E+00  0.1490227E+01
0.1481433E+01  0.1870688E+00  0.1474747E+01
0.1586261E+01  0.1960616E+00  0.1575562E+01
0.1460896E+01  0.2899333E+00  0.1457486E+01
0.1542195E+01  0.2867649E+00  0.1535103E+01
0.1486080E+01  0.2754813E+00  0.1481380E+01
0.1536278E+01  0.3247610E+00  0.1529863E+01
0.1510131E+01  0.3295675E+00  0.1504981E+01
0.1455545E+01  0.2514402E+00  0.1451866E+01
0.1610995E+01  0.1909452E+00  0.1599338E+01
0.1564462E+01  0.2395252E+00  0.1555863E+01
0.1571524E+01  0.3026484E+00  0.1563190E+01
0.1613657E+01  0.2555806E+00  0.1603127E+01
0.1633998E+01  0.2714643E+00  0.1622458E+01
0.1534973E+01  0.3650914E+00  0.1528518E+01
0.1583157E+01  0.2286349E+00  0.1573386E+01
0.1586501E+01  0.1581416E+00  0.1574239E+01
0.1651985E+01  0.2274641E+00  0.1639293E+01
0.1619170E+01  0.2936434E+00  0.1608445E+01
0.1678889E+01  0.2641389E+00  0.1665017E+01
0.1642286E+01  0.2930521E+00  0.1630330E+01
0.1526415E+01  0.3446283E+00  0.1520437E+01
0.1662420E+01  0.3044259E+00  0.1649479E+01
0.1636786E+01  0.2469276E+00  0.1625074E+01
0.1588953E+01  0.3366240E+00  0.1580023E+01
0.1616427E+01  0.3314099E+00  0.1606065E+01
0.1598305E+01  0.3102698E+00  0.1588713E+01
0.1655410E+01  0.2614708E+00  0.1642725E+01
0.1487553E+01  0.3072167E+00  0.1483158E+01
0.1520126E+01  0.3036443E+00  0.1514269E+01
0.1477894E+01  0.2544664E+00  0.1473375E+01
0.1567847E+01  0.2133479E+00  0.1558419E+01
0.1663947E+01  0.3299725E+00  0.1651164E+01
0.1567022E+01  0.2696000E+00  0.1558736E+01
0.1678598E+01  0.3509559E+00  0.1664844E+01
0.1611933E+01  0.3827205E+00  0.1601692E+01
0.1640491E+01  0.3197373E+00  0.1628853E+01
0.1588015E+01  0.2526666E+00  0.1578558E+01
0.1708471E+01  0.3144917E+00  0.1692922E+01
0.1606944E+01  0.3564315E+00  0.1597035E+01
0.1604614E+01  0.2314093E+00  0.1594017E+01
0.1643491E+01  0.3631133E+00  0.1631702E+01
0.2000000E+01  0.5000000E+00  0.1960451E+01
0.1494727E+01  0.3621796E+00  0.1490163E+01
0.1701807E+01  0.3477237E+00  0.1686590E+01
0.1572156E+01  0.3701847E+00  0.1564036E+01
0.1688392E+01  0.3285111E+00  0.1674168E+01
0.1695932E+01  0.3904821E+00  0.1681076E+01
0.1636337E+01  0.3418163E+00  0.1625040E+01
0.1505941E+01  0.9448485E-01  0.1486776E+01
0.1423727E+01  0.1910920E+00  0.1419449E+01
0.1481447E+01  0.3359634E+00  0.1477578E+01
0.1441613E+01  0.3726133E+00  0.1439618E+01
0.1466699E+01  0.3599060E+00  0.1463524E+01
0.1476682E+01  0.4107296E+00  0.1473159E+01
0.1434448E+01  0.3273535E+00  0.1432672E+01
0.1464523E+01  0.3867258E+00  0.1461595E+01
0.1456903E+01  0.3373583E+00  0.1454211E+01
0.1454188E+01  0.3132491E+00  0.1451317E+01
0.1424069E+01  0.2919612E+00  0.1422179E+01
0.1490969E+01  0.3884111E+00  0.1486750E+01
0.1428051E+01  0.4202828E+00  0.1426885E+01
0.1513790E+01  0.3782958E+00  0.1508382E+01
0.1547789E+01  0.4092466E+00  0.1540940E+01
0.1535154E+01  0.3889763E+00  0.1528784E+01
0.1512699E+01  0.4170463E+00  0.1507590E+01
0.1441554E+01  0.3983607E+00  0.1439723E+01
0.1395941E+01  0.3853832E+00  0.1396223E+01
0.1420578E+01  0.3854393E+00  0.1419637E+01
0.1408336E+01  0.3518173E+00  0.1407820E+01
0.1549967E+01  0.3074339E+00  0.1542791E+01
0.1651639E+01  0.4114272E+00  0.1639556E+01
0.1668616E+01  0.3788978E+00  0.1655420E+01
0.1674624E+01  0.4027285E+00  0.1661280E+01
0.1706988E+01  0.4343785E+00  0.1691873E+01
0.1673984E+01  0.4357547E+00  0.1660719E+01
0.1695270E+01  0.4139894E+00  0.1680779E+01
0.1737273E+01  0.4034108E+00  0.1719833E+01
0.1645630E+01  0.3875965E+00  0.1633857E+01
0.1625874E+01  0.4052508E+00  0.1615101E+01
0.1627808E+01  0.4540126E+00  0.1617336E+01
0.1587158E+01  0.4136289E+00  0.1578357E+01
0.1633718E+01  0.4293591E+00  0.1622825E+01
0.1651607E+01  0.4466828E+00  0.1639800E+01
0.1605650E+01  0.4356658E+00  0.1596115E+01
0.1682168E+01  0.4808869E+00  0.1668669E+01
0.1671711E+01  0.4594749E+00  0.1658934E+01
0.1698428E+01  0.4596870E+00  0.1684114E+01
0.1646221E+01  0.4851828E+00  0.1634783E+01
0.1607747E+01  0.4151289E+00  0.1597934E+01
0.1584205E+01  0.4841185E+00  0.1575840E+01
0.1747573E+01  0.4622079E+00  0.1729927E+01
0.1568396E+01  0.4481495E+00  0.1560656E+01
0.1601760E+01  0.4629165E+00  0.1592651E+01
0.1723356E+01  0.4540167E+00  0.1707352E+01
0.1732897E+01  0.4294241E+00  0.1715868E+01
0.1722218E+01  0.4972746E+00  0.1706530E+01
0.1715121E+01  0.4754441E+00  0.1699792E+01
0.1584567E+01  0.4345797E+00  0.1576088E+01
0.1563465E+01  0.4258523E+00  0.1556027E+01
0.1534166E+01  0.4440258E+00  0.1528052E+01
0.1615090E+01  0.4918227E+00  0.1605328E+01
0.1717469E+01  0.4134541E+00  0.1701488E+01
0.1718488E+01  0.3909170E+00  0.1702135E+01
0.1741353E+01  0.3769080E+00  0.1723508E+01
0.1781199E+01  0.4241746E+00  0.1760306E+01
0.2000000E+01  0.2500000E+00  0.1960330E+01
0.1756308E+01  0.4199875E+00  0.1737616E+01
0.1762447E+01  0.3937207E+00  0.1743122E+01
0.1765097E+01  0.4438197E+00  0.1745835E+01
0.1807974E+01  0.4625425E+00  0.1783549E+01
0.1789176E+01  0.4471344E+00  0.1767406E+01
0.1514158E+01  0.1287364E+00  0.1501995E+01
0.1777674E+01  0.4803377E+00  0.1757567E+01
0.1811145E+01  0.4395021E+00  0.1787229E+01
0.1850404E+01  0.4566449E+00  0.1820711E+01
0.1748483E+01  0.3522599E+00  0.1730094E+01
0.1731235E+01  0.3304535E+00  0.1714215E+01
0.1777870E+01  0.3654441E+00  0.1757424E+01
0.1748149E+01  0.2821176E+00  0.1729928E+01
0.1732875E+01  0.3039003E+00  0.1715734E+01
0.1708314E+01  0.2807181E+00  0.1692895E+01
0.1767650E+01  0.3193756E+00  0.1747986E+01
0.1372661E+01  0.1704076E+00  0.1369053E+01
0.1411157E+01  0.2494459E+00  0.1409365E+01
0.1448000E+01  0.2246098E+00  0.1444055E+01
0.1360382E+01  0.2278583E+00  0.1360156E+01
0.1433680E+01  0.2431125E+00  0.1430869E+01
0.1388814E+01  0.2314916E+00  0.1387477E+01
0.1314549E+01  0.2124991E+00  0.1315941E+01
0.1404157E+01  0.2007613E+00  0.1401377E+01
0.1415035E+01  0.1072182E+00  0.1403726E+01
0.1520299E+01  0.1091515E+00  0.1504817E+01
0.1459010E+01  0.1690672E+00  0.1452374E+01
0.1436337E+01  0.2690050E+00  0.1433717E+01
0.1443480E+01  0.1263360E+00  0.1434027E+01
0.1625000E+01  0.0000000E+00  0.1594552E+01
0.1414954E+01  0.2197329E+00  0.1412199E+01
0.1335299E+01  0.2266424E+00  0.1336054E+01
0.1396801E+01  0.1612344E+00  0.1391560E+01
0.1792033E+01  0.3934232E+00  0.1770304E+01
0.1541310E+01  0.1264947E+00  0.1528022E+01
0.1483859E+01  0.1256971E+00  0.1471889E+01
0.1500341E+01  0.1139400E+00  0.1486422E+01
0.1498380E+01  0.1421255E+00  0.1487753E+01
0.1478242E+01  0.1468909E+00  0.1469225E+01
0.1453147E+01  0.1972183E+00  0.1448110E+01
0.1348833E+01  0.2067866E+00  0.1348533E+01
0.1368157E+01  0.2800764E+00  0.1368589E+01
0.1250000E+01  0.0000000E+00  0.1232464E+01
0.1496272E+01  0.2780308E-01  0.1471299E+01
0.1430228E+01  0.1622338E+00  0.1423750E+01
0.1544491E+01  0.1012427E+00  0.1526509E+01
0.1505524E+01  0.5428530E-01  0.1482569E+01
0.1576405E+01  0.1180891E+00  0.1560239E+01
0.1526885E+01  0.8834234E-01  0.1506106E+01
0.1558557E+01  0.6358195E-01  0.1534956E+01
0.1372206E+01  0.9428859E-01  0.1358976E+01
0.1414069E+01  0.8636887E-01  0.1398745E+01
0.1351230E+01  0.1581055E+00  0.1347735E+01
0.1371634E+01  0.2528708E+00  0.1371572E+01
0.1392978E+01  0.2694234E+00  0.1392199E+01
0.1321668E+01  0.2603105E+00  0.1323926E+01
0.1392566E+01  0.3027057E+00  0.1392242E+01
0.1345601E+01  0.2495441E+00  0.1346560E+01
0.1349996E+01  0.1827855E+00  0.1348364E+01
0.1475238E+01  0.9618066E-01  0.1458363E+01
0.1487372E+01  0.4556180E+00  0.1483551E+01
0.1432024E+01  0.3509343E+00  0.1430373E+01
0.1619231E+01  0.5383449E+00  0.1609234E+01
0.1532505E+01  0.4233173E+00  0.1526453E+01
0.1547332E+01  0.4788657E+00  0.1540724E+01
0.1627786E+01  0.4750493E+00  0.1617187E+01
0.1750658E+01  0.4911384E+00  0.1732989E+01
0.1783313E+01  0.5336292E+00  0.1762223E+01
0.1744147E+01  0.5299352E+00  0.1726750E+01
0.1772978E+01  0.5077787E+00  0.1753081E+01
0.1739682E+01  0.5092411E+00  0.1722647E+01
0.1715917E+01  0.5251974E+00  0.1700581E+01
0.1809547E+01  0.4999146E+00  0.1784671E+01
0.1486188E+01  0.5335558E+00  0.1482292E+01
0.1695320E+01  0.5058771E+00  0.1681387E+01
0.1793562E+01  0.5145404E+00  0.1770944E+01
0.1827482E+01  0.5355643E+00  0.1800241E+01
0.1805457E+01  0.5332234E+00  0.1781401E+01
0.1812320E+01  0.5734372E+00  0.1787885E+01
0.1794794E+01  0.5557356E+00  0.1772496E+01
0.1637325E+01  0.5533192E+00  0.1626516E+01
0.1761146E+01  0.5591762E+00  0.1742379E+01
0.1789115E+01  0.5788851E+00  0.1767238E+01
0.1693317E+01  0.6123782E+00  0.1679495E+01
0.1522396E+01  0.5359490E+00  0.1516892E+01
0.1814654E+01  0.6254783E+00  0.1789507E+01
0.1726166E+01  0.5505978E+00  0.1710042E+01
0.1691322E+01  0.5307786E+00  0.1677741E+01
0.1516987E+01  0.5143680E+00  0.1511850E+01
0.1661909E+01  0.5147686E+00  0.1649773E+01
0.1761865E+01  0.6508066E+00  0.1742580E+01
0.1692174E+01  0.5698207E+00  0.1678556E+01
0.1780214E+01  0.6037461E+00  0.1759615E+01
[...]
POINT_DATA    3280
SCALARS hauteur float
LOOKUP_TABLE DEFAULT
       2.2057191E-02
       2.5849249E-05
       9.5880246E-05
       2.2162466E-02
       1.2615163E-02
       1.2312276E-02
       2.5693764E-02
       3.8163006E-03
       1.7884797E-02
       2.4181623E-02
       2.4286871E-02
       2.2277772E-02
       2.1563907E-02
       2.1700863E-02
       2.3537603E-02
       5.8341189E-04
       2.1510314E-02
       2.3465229E-02
       1.6065218E-02
       1.9927316E-02
       2.2738690E-02
       2.2713867E-02
       2.4222628E-02
       2.3398376E-02
       2.3596063E-02
       2.3558076E-02
       2.2844728E-02
       2.0919983E-02
       2.5711048E-02
       2.3649729E-02
       2.4923220E-02
       2.4208811E-02
       2.4952307E-02
       2.5335067E-02
       2.0456336E-02
       2.2585586E-02
       2.2992621E-02
       2.1635128E-02
       2.1030646E-02
       2.4142358E-02
       2.1786370E-02
       1.9362164E-02
       2.0237937E-02
       2.1551190E-02
       1.9593889E-02
       2.0780081E-02
       2.4449528E-02
       2.0196264E-02
       2.0914402E-02
       2.2743635E-02
       2.1859705E-02
       2.2268301E-02
       2.0312351E-02
       2.5256959E-02
       2.4443506E-02
       2.4940953E-02
       2.1824774E-02
       2.0384883E-02
       2.2949705E-02
       1.9705743E-02
       2.1890654E-02
       2.1062550E-02
       2.2197791E-02
       1.8507452E-02
       2.2123021E-02
       2.1387731E-02
       2.0971148E-02
       3.1795212E-04
       2.5230831E-02
       1.8706000E-02
       2.3218786E-02
       1.9431322E-02
       1.8948807E-02
       2.1320841E-02
       1.0853492E-02
       2.4100831E-02
       2.5660862E-02
       2.6741259E-02
       2.6061587E-02
       2.5912176E-02
       2.6817845E-02
       2.6265115E-02
       2.6349121E-02
       2.6115691E-02
       2.6496905E-02
       2.5500889E-02
       2.7299931E-02
       2.4767475E-02
       2.4003295E-02
       2.4230853E-02
       2.5044515E-02
       2.6904008E-02
       2.8107833E-02
       2.7376430E-02
       2.7557692E-02
       2.3721010E-02
       2.0839682E-02
       2.0065239E-02
       2.0036480E-02
       1.8911306E-02
       2.0103147E-02
       1.9301938E-02
       1.7189979E-02
       2.1029882E-02
       2.1635580E-02
       2.1976001E-02
       2.2836019E-02
       2.1672964E-02
       2.1114897E-02
       2.2471688E-02
       2.0032352E-02
       2.0545148E-02
       1.9541703E-02
       2.1376878E-02
       2.2234465E-02
       2.3214254E-02
       1.7189825E-02
       2.3523375E-02
       2.2818754E-02
       1.8349131E-02
       1.7513143E-02
       1.8642076E-02
       1.8859429E-02
       2.3106605E-02
       2.3727051E-02
       2.4467425E-02
       2.2432851E-02
       1.8254738E-02
       1.7901939E-02
       1.6866183E-02
       1.4611599E-02
       1.9651528E-04
       1.6316934E-02
       1.5806288E-02
       1.5922409E-02
       1.1614728E-02
       1.3894726E-02
       1.8018497E-02
       1.5328143E-02
       1.2186086E-02
       7.1921964E-03
       1.6464255E-02
       1.7489150E-02
       1.4992712E-02
       1.6626038E-02
       1.7400422E-02
       1.8633847E-02
       1.5571020E-02
       2.3753338E-02
       2.6337610E-02
       2.4918409E-02
       2.6891273E-02
       2.5767539E-02
       2.6346850E-02
       2.7595253E-02
       2.5208963E-02
       1.6897041E-02
       1.4821952E-02
       2.2447610E-02
       2.6011112E-02
       1.9320664E-02
       1.9440975E-03
       2.5450023E-02
       2.7371243E-02
       2.2601980E-02
       1.3992896E-02
       1.7435752E-02
       1.7608122E-02
       1.5987976E-02
       1.9241179E-02
       2.0449216E-02
       2.3928484E-02
       2.6587386E-02
       2.7703472E-02
       7.3809484E-03
       4.8537394E-03
       2.2030897E-02
       1.2805351E-02
       7.0553415E-03
       1.5257289E-02
       9.6567469E-03
       7.4662707E-03
       1.4122632E-02
       1.2863603E-02
       2.3439308E-02
       2.7279090E-02
       2.6988286E-02
       2.8603840E-02
       2.7434122E-02
       2.7780779E-02
       2.5278010E-02
       1.2531935E-02
       2.5827201E-02
       2.6893848E-02
       2.2280232E-02
       2.4496272E-02
       2.4235355E-02
       2.1848507E-02
       1.7227767E-02
       1.4458341E-02
       1.7370358E-02
       1.5444499E-02
       1.7642639E-02
       1.8868029E-02
       1.1194667E-02
       2.5729482E-02
       1.9860097E-02
       1.3134400E-02
       9.1870553E-03
       1.1932927E-02
       1.1691082E-02
       1.3478364E-02
       2.1828641E-02
       1.6338159E-02
       1.3786679E-02
       1.9931882E-02
       2.4842949E-02
       1.1025788E-02
       1.8284133E-02
       2.0132953E-02
       2.5101840E-02
       2.0991689E-02
       1.5834535E-02
       2.0113291E-02
       1.4887626E-02
       2.3721230E-02
       2.0902663E-02
       1.6987602E-02
       2.3236681E-02
       1.9867875E-02
       1.7758494E-02
       1.7051833E-02
       1.8163272E-02
       1.7708807E-02
       9.5429905E-03
       1.0888809E-02
       2.7363148E-04
       1.5194735E-02
       6.1229995E-03
       1.4135078E-02
       1.6140101E-02
       1.9401407E-02
       1.7604853E-02
       1.2727851E-02
       9.4738460E-03
       9.6794669E-03
       1.1722565E-02
       1.2929764E-02
       1.3015917E-02
       1.5003812E-02
       1.9888388E-02
       2.5701470E-02
       1.7111946E-02
       1.8462104E-02
       2.0410155E-02
       2.1115684E-02
       7.7770774E-03
       1.0317654E-02
       7.1208053E-03
       3.1827944E-03
       3.4594187E-03
       4.4102984E-03
       1.2012391E-02
       1.2492473E-02
       4.2793722E-03
       1.6781782E-02
       6.9750345E-03
       1.5494861E-02
       5.1444397E-03
       1.3742157E-03
       1.2265110E-02
       1.8975600E-02
       1.7838711E-02
       1.9278936E-02
       8.8602072E-03
       1.7218272E-02
       2.1319338E-02
       2.0563682E-02
       2.5002270E-02
       2.3541338E-02
       2.0829683E-02
       2.4189422E-02
       1.2080182E-02
       5.5435385E-03
       2.0808470E-02
       9.0999226E-03
       1.9912499E-02
       6.7973007E-03
       2.6880255E-02
       2.7157550E-02
       2.7879919E-02
       2.8357748E-02
       2.8671729E-02
       2.5631188E-02
       2.5047009E-02
       2.6481246E-02
       2.4756876E-02
       2.4873336E-02
       2.2978983E-02
       2.4295919E-02
       2.1635160E-02
       2.4097791E-02
       2.3638556E-02
       1.2962783E-02
       9.8354718E-03
       8.0909836E-03
       1.6080118E-02
       2.0804102E-02
       8.4145007E-03
       1.2231416E-02
       2.1790194E-02
       2.3098133E-02
       1.0644343E-02
       1.8967059E-02
       1.1776180E-02
       1.8299967E-02
       1.5796735E-02
       1.6837071E-02
       1.7369359E-02
       1.1969164E-02
       6.4479871E-03
       1.7482679E-04
       1.3533690E-02
       3.6420511E-03
       1.5652053E-02
       1.3970363E-02
       2.0822416E-02
       4.8869675E-04
       9.2527861E-03
       1.5184442E-02
       1.3651124E-02
       1.9418625E-02
       1.8936881E-02
       3.5579569E-03
       2.2522301E-02
       3.2171237E-03
       1.6737441E-02
       2.3893555E-02
       2.7747459E-03
       1.2088749E-03
       1.8892471E-02
       1.8323270E-02
       2.0049106E-02
       2.0245459E-02
       1.2371621E-02
       1.9804478E-02
       1.8581307E-02
       1.9732712E-02
       2.0847982E-02
       1.8479841E-02
       1.4830630E-02
       1.7121786E-02
       1.8502452E-02
       8.8327264E-04
       9.4178349E-03
       9.1191967E-03
       1.2044791E-02
       4.8593489E-03
       4.2439058E-03
       2.2080269E-03
       2.4667993E-03
       1.7169884E-03
       1.8747404E-02
       1.9849917E-02
       1.5751585E-02
       1.3046691E-02
       1.6642022E-02
       1.0530821E-02
       4.7255233E-03
       9.0438835E-03
       5.0884196E-03
       4.3368137E-03
       3.5231315E-03
       5.0562630E-03
       6.3525196E-03
       2.6429263E-02
       2.9605127E-02
       2.7963039E-02
       2.8605314E-02
       2.9600354E-02
       2.8205720E-02
       2.9149593E-02
       3.0353560E-02
       2.9915323E-02
       3.1151288E-02
       2.9478326E-02
       3.0616630E-02
       3.1982197E-02
       3.1196487E-02
       3.1076424E-02
       3.1068026E-02
       3.0081520E-02
       2.8593056E-02
       2.8029946E-02
       2.8240667E-02
       2.8011893E-02
       2.9021306E-02
       2.9965370E-02
       2.9903771E-02
       2.6498193E-02
       2.3918834E-02
       2.6591823E-02
       2.5202241E-02
       2.4012836E-02
       2.8541685E-02
       2.9733964E-02
       2.9392859E-02
       2.8985246E-02
       2.8942419E-02
       2.9546582E-02
       3.0893084E-02
       3.0353838E-02
       2.8646092E-02
       3.0122632E-02
       3.0639866E-02
       3.1108362E-02
       3.0384392E-02
       2.9137556E-02
       2.9404818E-02
       3.2534231E-02
       3.0307910E-02
       3.2483953E-02
       3.1732089E-02
       3.1790840E-02
       3.1955134E-02
       3.3384003E-02
       3.2652503E-02
       3.2622507E-02
       3.1517597E-02
       3.2324582E-02
       3.3780937E-02
       3.2978125E-02
       3.3557558E-02
       3.1713006E-02
       3.5157117E-02
       3.1400993E-02
       3.4206614E-02
       3.0117663E-02
       3.2716153E-02
       3.4377698E-02
       3.5252570E-02
       3.5144454E-02
       3.6736252E-02
       3.6024935E-02
       3.5607396E-02
       3.4056933E-02
       3.0931730E-02
       3.2053296E-02
       3.5909157E-02
       3.5894682E-02
       3.6240635E-02
       3.7663280E-02
       3.7158113E-02
       3.5072903E-02
       3.7498022E-02
       3.0403242E-02
       3.1313630E-02
       3.6710912E-02
       3.6391349E-02
       3.6276408E-02
       3.7099923E-02
       3.7680416E-02
       2.9403998E-02
       3.1371224E-02
       3.8751274E-02
       3.0615063E-02
       3.2793847E-02
       3.8019710E-02
       3.8707859E-02
       2.9270906E-02
       3.2238451E-02
       3.3140126E-02
       3.8097790E-02
       3.9241766E-02
       3.8916711E-02
       4.0546013E-02
       4.0164112E-02
       2.9900525E-02
       2.9311184E-02
       3.0138529E-02
       2.7929798E-02
       3.0267769E-02
       2.8639944E-02
       2.8866635E-02
       2.8399860E-02
       3.9812652E-02
       4.2433180E-02
       2.7956534E-02
       3.9576518E-02
       4.0252115E-02
       4.0432017E-02
       4.1369205E-02
       2.7243888E-02
       2.8205161E-02
       2.7664363E-02
       2.6769740E-02
       2.7310171E-02
       2.7276633E-02
       3.9832432E-02
       3.8727532E-02
       4.0894420E-02
       4.0037258E-02
       2.6743657E-02
       2.6210830E-02
       3.7970080E-02
       4.2280185E-02
       4.1264020E-02
       3.8301093E-02
       2.6320012E-02
       4.2899594E-02
       3.8938211E-02
       3.7738314E-02
       2.6941897E-02
       4.1642085E-02
       4.2662708E-02
       4.1026419E-02
       4.4472887E-02
       4.0692012E-02
       4.4004723E-02
       4.3489733E-02
       4.3321051E-02
       4.3622297E-02
       4.3050513E-02
       4.1907767E-02
       4.1494577E-02
       4.5122585E-02
       4.4259655E-02
       4.5750021E-02
       4.4184258E-02
       4.4714661E-02
       2.6565765E-02
       1.0736432E-02
       7.0980865E-03
       2.5779448E-03
       4.9949152E-03
       2.8865165E-03
       4.3357147E-03
       4.0282676E-03
       5.8972495E-03
       6.5817950E-03
       5.6223782E-03
       7.5216879E-03
       1.3173211E-04
       4.2096016E-04
       3.3825128E-03
       3.8963850E-03
       2.2974291E-03
       1.1022253E-03
       4.1139918E-03
       6.7260215E-04
       6.3288246E-04
       2.5502016E-03
       1.4207495E-03
       7.5625889E-04
       1.3486301E-03
       1.6341269E-04
       2.5544976E-02
       2.1224470E-02
       2.0479240E-02
       2.1983472E-02
       2.0969872E-02
       2.1392502E-02
       2.2045735E-02
       2.4531642E-02
       2.3466230E-02
       2.4043038E-02
       2.4627089E-02
       2.3574509E-02
       2.4018684E-02
       2.2927288E-02
       2.4122119E-02
       2.4770867E-02
       2.4461235E-02
       2.5364921E-02
       2.5950588E-02
       2.5388899E-02
       2.4542198E-02
       2.3427670E-02
       2.4005710E-02
       2.3424157E-02
       2.3930713E-02
       2.4621579E-02
       2.4060002E-02
       2.3226597E-02
       2.3951194E-02
       2.3548741E-02
       2.3697455E-02
       2.2291833E-02
       2.3772126E-02
       2.2054583E-02
       2.4781773E-02
       2.2985231E-02
       2.4519238E-02
       2.5257298E-02
       2.2176775E-02
       2.2663006E-02
       2.3542408E-02
       2.5203309E-02
       2.6079375E-02
       2.5507632E-02
       2.4730196E-02
       2.6485777E-02
       2.5275267E-02
       2.5678103E-02
       2.5246173E-02
       2.4319084E-02
       2.5955212E-02
       2.5786433E-02
       2.6661415E-02
       2.5765821E-02
       2.6276267E-02
       2.7528426E-02
       2.6877755E-02
       2.7715347E-02
       1.5647856E-02
       1.7678643E-02
       1.8976512E-02
       1.9575366E-02
       1.8881808E-02
       1.6608845E-02
       8.7446565E-03
       2.1410035E-03
       8.6792211E-03
       4.5540647E-03
       1.9329395E-02
       2.1390869E-02
       1.5944982E-02
       1.4734644E-02
       1.9440833E-02
       1.9486440E-02
       1.8429626E-02
       1.6615164E-02
       1.7207079E-02
       1.7694898E-02
       1.7378708E-02
       1.8566952E-02
       1.4330246E-02
       1.4422963E-02
       1.6198145E-02
       1.5788798E-02
       1.3270621E-02
       1.4617053E-02
       1.5334050E-02
       1.0911805E-02
       9.4613789E-03
       1.3078261E-02
       1.1160098E-02
       1.2742737E-02
       1.3088329E-02
       1.7112552E-02
       1.0777286E-02
       1.3214742E-02
       5.1149675E-03
       2.8018229E-03
       3.3796153E-03
       2.1710719E-03
       2.0753203E-02
       1.8372965E-02
       1.8006492E-02
       5.5488596E-03
       6.7253425E-03
       7.1677445E-03
       4.9525983E-03
       5.3213002E-03
       3.9245034E-03
       2.6554452E-02
       2.6105448E-02
       2.8201369E-02
       2.6253235E-02
       2.8158723E-02
       2.4827660E-02
       2.9547982E-02
       2.4168424E-02
       3.0865689E-02
       2.9575749E-02
       2.6383853E-02
       2.7958958E-02
       1.6495454E-02
       3.0834291E-02
       2.1210666E-02
       2.1653634E-02
       9.9580504E-03
       2.0419882E-02
       3.1460272E-02
       1.3710358E-02
       1.0295553E-02
       1.3757751E-02
       1.3374305E-02
       3.0256011E-02
       3.1841962E-02
       2.3159868E-02
       2.1785102E-02
       2.9925679E-02
       3.2828646E-02
       3.3351322E-02
       2.9716876E-02
       3.2298431E-02
       3.4726431E-02
       3.4268102E-02
       3.9278774E-02
       3.6961946E-02
       4.1342436E-02
       4.1972731E-02
       4.3692634E-02
       4.2321642E-02
       4.3209282E-02
       4.5336144E-02
       4.4412456E-02
       4.4055214E-02
       4.5191870E-02
       4.1167397E-02
       4.1182561E-02
       3.8097791E-02
       3.9378557E-02
       4.2480973E-02
       4.2863011E-02
       4.1175768E-02
       4.0574675E-02
       4.1393084E-02
       4.5288070E-02
       4.7304854E-02
       6.1073858E-03
       5.4055604E-04
       1.7240132E-03
       2.2303072E-04
       2.2347450E-02
       2.2802001E-02
       2.1367583E-02
       2.1984264E-02
       2.2472662E-02
       2.5434639E-02
       2.6765591E-02
       2.6498768E-02
       2.2808114E-02
       2.2136190E-02
       2.0984319E-02
       2.5010892E-02
       2.4575231E-02
       2.1729990E-02
       2.6554374E-02
       2.8454280E-02
       3.4508296E-03
       1.6469876E-03
       5.2188146E-03
       2.2155731E-03
       3.1344085E-03
       8.1008454E-03
       6.0751106E-04
       2.9247281E-03
       2.4477934E-04
       5.5597292E-04
       4.6988809E-04
       7.8444514E-04
       4.7618340E-04
       1.3517725E-03
       1.7908821E-04
       1.1572406E-02
       1.3200745E-02
       4.7608027E-03
       7.2780920E-03
       2.0481953E-02
       2.0651514E-02
       2.1713735E-02
       2.1520548E-02
       2.2336831E-02
       2.2814089E-02
       2.3173434E-02
       1.4426418E-02
       1.4017435E-02
       1.7299500E-02
       1.7052600E-02
       8.6845077E-03
       1.5083630E-02
       1.6105303E-02
       5.5826412E-03
       1.5706658E-02
       1.7282558E-02
       1.8443769E-02
       1.7802401E-02
       1.9531207E-02
       1.7833595E-02
       1.0833901E-03
       1.9330949E-02
       1.6123984E-02
       1.9234889E-02
       1.5500835E-02
       1.5182922E-02
       1.5414109E-02
       9.5947677E-03
       1.3167692E-02
       1.1787739E-02
       1.1891400E-02
       1.1430298E-02
       6.0482753E-03
       1.8238451E-03
       1.7902358E-02
       1.7369303E-02
       1.9376940E-02
       1.4536115E-02
       1.4850078E-02
       1.3739454E-02
       1.6363455E-02
       1.5453992E-02
       1.4555549E-02
       1.7733386E-02
       9.1731546E-03
       2.0229358E-03
       1.6466268E-03
       2.1390545E-02
       1.6792501E-02
       1.0956559E-02
       1.3200844E-02
       1.0443481E-02
       1.5442939E-02
       1.7911906E-02
       1.6980101E-02
       3.2472376E-02
       3.3678084E-02
       3.3759922E-02
       3.4284583E-02
       3.4054587E-02
       3.4828953E-02
       3.3355120E-02
       3.3310195E-02
       3.4310171E-02
       3.3432514E-02
       3.9408772E-02
       4.2659394E-02
       5.2344140E-02
       4.5509216E-02
       4.0375138E-02
       4.7943006E-02
       4.6271767E-02
       4.7661874E-02
       4.6669898E-02
       4.4095091E-02
       4.9945958E-02
       3.7983969E-02
       4.8873042E-02
       5.1176599E-02
       4.1666638E-02
       3.3313311E-02
       5.0920707E-02
       5.0034686E-02
       4.6282202E-02
       4.6399988E-02
       4.7253439E-02
       4.0032763E-02
       4.8603594E-02
       4.0052933E-02
       4.7736285E-02
       3.9505160E-02
       5.0481271E-02
       4.6986212E-02
       4.9144456E-02
       4.8282660E-02
       4.9179872E-02
       4.6851607E-02
       5.0209108E-02
       4.4446258E-02
       4.9599960E-02
       4.4123099E-02
       4.1677307E-02
       4.8866671E-02
       5.0473564E-02
       4.3861493E-02
       4.2809379E-02
       2.1995319E-02
       5.1667445E-02
       1.9489973E-02
       5.2407266E-02
       4.5502453E-02
       5.1740889E-02
       3.8795130E-02
       3.7721532E-02
       5.1959893E-02
       5.2644399E-02
       5.2661772E-02
       5.3819444E-02
       5.1427148E-02
       5.1045776E-02
       4.4619410E-02
       3.9529873E-02
       4.3164832E-02
       4.0214400E-02
       3.9823023E-02
       4.8080010E-02
       4.2774049E-02
       4.2656675E-02
       3.8849353E-02
       3.6804035E-02
       4.2592725E-02
       5.4860094E-02
       4.5339379E-02
       4.9875484E-02
       3.8523470E-02
       4.9608773E-02
       3.9519714E-02
       3.8944194E-02
       3.7680079E-02
       3.6026127E-02
       3.7534515E-02
       3.7269854E-02
       3.8085402E-02
       3.7239237E-02
       3.6185580E-02
       3.6556281E-02
       3.5894793E-02
       3.6224758E-02
       3.5271729E-02
       3.4169980E-02
       3.5067962E-02
       3.4484848E-02
       3.4753398E-02
       3.5569612E-02
       3.4717970E-02
       3.3731880E-02
       3.2977173E-02
       3.3017315E-02
       3.3159762E-02
       3.2099344E-02
       3.3047286E-02
       3.3859731E-02
       3.9364143E-02
       4.2297075E-02
       4.0124089E-02
       4.1506185E-02
       4.5070525E-02
       4.6442563E-02
       4.5748093E-02
       4.6392613E-02
       4.5774654E-02
       4.4729283E-02
       4.6748877E-02
       4.5464012E-02
       4.8333366E-02
       4.5746118E-02
       4.7975278E-02
       4.7185554E-02
       4.9097438E-02
       4.6490311E-02
       4.7167572E-02
       4.6780322E-02
       4.5246823E-02
       4.7908396E-02
       4.6083185E-02
       4.6424807E-02
       4.7135277E-02
       4.7442121E-02