# vtk DataFile Version 3.0
# Solution du M1 TR
ASCII
DATASET UNSTRUCTURED_GRID
POINTS   3280  float
0.0000000E+00  0.0000000E+00  0.2350731E-01
0.2000000E+01  0.0000000E+00  0.1960276E+01
0.2000000E+01  0.1000000E+01  0.1960428E+01
0.0000000E+00  0.1000000E+01  0.2368843E-01
0.1000000E+01  0.0000000E+00  0.9926129E+00
0.1000000E+01  0.1000000E+01  0.9920139E+00
0.1500000E+01  0.5000000E+00  0.1495514E+01
0.1500000E+01  0.0000000E+00  0.1473008E+01
0.1723284E+01  0.3570951E+00  0.1700290E+01
0.1500000E+01  0.2500000E+00  0.1494853E+01
0.1515103E+01  0.2763186E+00  0.1509298E+01
0.1594866E+01  0.2826386E+00  0.1583581E+01
0.1562500E+01  0.1875000E+00  0.1552473E+01
0.1534357E+01  0.1819434E+00  0.1525445E+01
0.1561083E+01  0.3343258E+00  0.1552437E+01
0.1750000E+01  0.0000000E+00  0.1715428E+01
0.1503267E+01  0.1622339E+00  0.1495060E+01
0.1514910E+01  0.2261192E+00  0.1508559E+01
0.1610795E+01  0.1290247E+00  0.1591802E+01
0.1539062E+01  0.1536458E+00  0.1527737E+01
0.1510772E+01  0.1982718E+00  0.1503778E+01
0.1541862E+01  0.2179813E+00  0.1533786E+01
0.1475030E+01  0.2178147E+00  0.1470773E+01
0.1539206E+01  0.2578835E+00  0.1531643E+01
0.1521085E+01  0.2465697E+00  0.1514516E+01
0.1496499E+01  0.2146241E+00  0.1490900E+01
0.1481433E+01  0.1870688E+00  0.1475449E+01
0.1586261E+01  0.1960616E+00  0.1574275E+01
0.1460896E+01  0.2899333E+00  0.1458248E+01
0.1542195E+01  0.2867649E+00  0.1534587E+01
0.1486080E+01  0.2754813E+00  0.1481910E+01
0.1536278E+01  0.3247610E+00  0.1529352E+01
0.1510131E+01  0.3295675E+00  0.1504868E+01
0.1455545E+01  0.2514402E+00  0.1452876E+01
0.1610995E+01  0.1909452E+00  0.1597200E+01
0.1564462E+01  0.2395252E+00  0.1555232E+01
0.1571524E+01  0.3026484E+00  0.1561905E+01
0.1613657E+01  0.2555806E+00  0.1600876E+01
0.1633998E+01  0.2714643E+00  0.1619348E+01
0.1534973E+01  0.3650914E+00  0.1527505E+01
0.1583157E+01  0.2286349E+00  0.1572229E+01
0.1586501E+01  0.1581416E+00  0.1572807E+01
0.1651985E+01  0.2274641E+00  0.1635739E+01
0.1619170E+01  0.2936434E+00  0.1605757E+01
0.1678889E+01  0.2641389E+00  0.1660015E+01
0.1642286E+01  0.2930521E+00  0.1626689E+01
0.1526415E+01  0.3446283E+00  0.1519848E+01
0.1662420E+01  0.3044259E+00  0.1644986E+01
0.1636786E+01  0.2469276E+00  0.1622126E+01
0.1588953E+01  0.3366240E+00  0.1578190E+01
0.1616427E+01  0.3314099E+00  0.1603404E+01
0.1598305E+01  0.3102698E+00  0.1586658E+01
0.1655410E+01  0.2614708E+00  0.1638686E+01
0.1487553E+01  0.3072167E+00  0.1483443E+01
0.1520126E+01  0.3036443E+00  0.1514086E+01
0.1477894E+01  0.2544664E+00  0.1474177E+01
0.1567847E+01  0.2133479E+00  0.1557768E+01
0.1663947E+01  0.3299725E+00  0.1646925E+01
0.1567022E+01  0.2696000E+00  0.1557782E+01
0.1678598E+01  0.3509559E+00  0.1659873E+01
0.1611933E+01  0.3827205E+00  0.1598365E+01
0.1640491E+01  0.3197373E+00  0.1625377E+01
0.1588015E+01  0.2526666E+00  0.1577138E+01
0.1708471E+01  0.3144917E+00  0.1686922E+01
0.1606944E+01  0.3564315E+00  0.1594327E+01
0.1604614E+01  0.2314093E+00  0.1592106E+01
0.1643491E+01  0.3631133E+00  0.1627815E+01
0.2000000E+01  0.5000000E+00  0.1960533E+01
0.1494727E+01  0.3621796E+00  0.1490047E+01
0.1701807E+01  0.3477237E+00  0.1680716E+01
0.1572156E+01  0.3701847E+00  0.1562248E+01
0.1688392E+01  0.3285111E+00  0.1668978E+01
0.1695932E+01  0.3904821E+00  0.1675215E+01
0.1636337E+01  0.3418163E+00  0.1621665E+01
0.1505941E+01  0.9448485E-01  0.1485139E+01
0.1423727E+01  0.1910920E+00  0.1420599E+01
0.1481447E+01  0.3359634E+00  0.1477829E+01
0.1441613E+01  0.3726133E+00  0.1440176E+01
0.1466699E+01  0.3599060E+00  0.1463825E+01
0.1476682E+01  0.4107296E+00  0.1473277E+01
0.1434448E+01  0.3273535E+00  0.1433463E+01
0.1464523E+01  0.3867258E+00  0.1461933E+01
0.1456903E+01  0.3373583E+00  0.1454748E+01
0.1454188E+01  0.3132491E+00  0.1451941E+01
0.1424069E+01  0.2919612E+00  0.1423135E+01
0.1490969E+01  0.3884111E+00  0.1486692E+01
0.1428051E+01  0.4202828E+00  0.1427637E+01
0.1513790E+01  0.3782958E+00  0.1507860E+01
0.1547789E+01  0.4092466E+00  0.1539534E+01
0.1535154E+01  0.3889763E+00  0.1527716E+01
0.1512699E+01  0.4170463E+00  0.1507133E+01
0.1441554E+01  0.3983607E+00  0.1440330E+01
0.1395941E+01  0.3853832E+00  0.1397253E+01
0.1420578E+01  0.3854393E+00  0.1420457E+01
0.1408336E+01  0.3518173E+00  0.1408758E+01
0.1549967E+01  0.3074339E+00  0.1542070E+01
0.1651639E+01  0.4114272E+00  0.1634822E+01
0.1668616E+01  0.3788978E+00  0.1650637E+01
0.1674624E+01  0.4027285E+00  0.1656075E+01
0.1706988E+01  0.4343785E+00  0.1684987E+01
0.1673984E+01  0.4357547E+00  0.1654892E+01
0.1695270E+01  0.4139894E+00  0.1674707E+01
0.1737273E+01  0.4034108E+00  0.1712405E+01
0.1645630E+01  0.3875965E+00  0.1629658E+01
0.1625874E+01  0.4052508E+00  0.1611294E+01
0.1627808E+01  0.4540126E+00  0.1613437E+01
0.1587158E+01  0.4136289E+00  0.1575908E+01
0.1633718E+01  0.4293591E+00  0.1618812E+01
0.1651607E+01  0.4466828E+00  0.1634815E+01
0.1605650E+01  0.4356658E+00  0.1592941E+01
0.1682168E+01  0.4808869E+00  0.1661472E+01
0.1671711E+01  0.4594749E+00  0.1652819E+01
0.1698428E+01  0.4596870E+00  0.1677148E+01
0.1646221E+01  0.4851828E+00  0.1629283E+01
0.1607747E+01  0.4151289E+00  0.1594775E+01
0.1584205E+01  0.4841185E+00  0.1572627E+01
0.1747573E+01  0.4622079E+00  0.1721551E+01
0.1568396E+01  0.4481495E+00  0.1558364E+01
0.1601760E+01  0.4629165E+00  0.1589432E+01
0.1723356E+01  0.4540167E+00  0.1699690E+01
0.1732897E+01  0.4294241E+00  0.1708121E+01
0.1722218E+01  0.4972746E+00  0.1697881E+01
0.1715121E+01  0.4754441E+00  0.1691732E+01
0.1584567E+01  0.4345797E+00  0.1573568E+01
0.1563465E+01  0.4258523E+00  0.1554250E+01
0.1534166E+01  0.4440258E+00  0.1526817E+01
0.1615090E+01  0.4918227E+00  0.1601021E+01
0.1717469E+01  0.4134541E+00  0.1694630E+01
0.1718488E+01  0.3909170E+00  0.1695366E+01
0.1741353E+01  0.3769080E+00  0.1716287E+01
0.1781199E+01  0.4241746E+00  0.1752350E+01
0.2000000E+01  0.2500000E+00  0.1960360E+01
0.1756308E+01  0.4199875E+00  0.1729733E+01
0.1762447E+01  0.3937207E+00  0.1735437E+01
0.1765097E+01  0.4438197E+00  0.1737485E+01
0.1807974E+01  0.4625425E+00  0.1776072E+01
0.1789176E+01  0.4471344E+00  0.1759167E+01
0.1514158E+01  0.1287364E+00  0.1501155E+01
0.1777674E+01  0.4803377E+00  0.1748940E+01
0.1811145E+01  0.4395021E+00  0.1779685E+01
0.1850404E+01  0.4566449E+00  0.1815912E+01
0.1748483E+01  0.3522599E+00  0.1722967E+01
0.1731235E+01  0.3304535E+00  0.1707531E+01
0.1777870E+01  0.3654441E+00  0.1749928E+01
0.1748149E+01  0.2821176E+00  0.1722721E+01
0.1732875E+01  0.3039003E+00  0.1708980E+01
0.1708314E+01  0.2807181E+00  0.1686994E+01
0.1767650E+01  0.3193756E+00  0.1740713E+01
0.1372661E+01  0.1704076E+00  0.1370230E+01
0.1411157E+01  0.2494459E+00  0.1410673E+01
0.1448000E+01  0.2246098E+00  0.1445212E+01
0.1360382E+01  0.2278583E+00  0.1361586E+01
0.1433680E+01  0.2431125E+00  0.1432071E+01
0.1388814E+01  0.2314916E+00  0.1388873E+01
0.1314549E+01  0.2124991E+00  0.1317329E+01
0.1404157E+01  0.2007613E+00  0.1402720E+01
0.1415035E+01  0.1072182E+00  0.1403880E+01
0.1520299E+01  0.1091515E+00  0.1503220E+01
0.1459010E+01  0.1690672E+00  0.1453150E+01
0.1436337E+01  0.2690050E+00  0.1434758E+01
0.1443480E+01  0.1263360E+00  0.1434370E+01
0.1625000E+01  0.0000000E+00  0.1593596E+01
0.1414954E+01  0.2197329E+00  0.1413497E+01
0.1335299E+01  0.2266424E+00  0.1337485E+01
0.1396801E+01  0.1612344E+00  0.1392533E+01
0.1792033E+01  0.3934232E+00  0.1762674E+01
0.1541310E+01  0.1264947E+00  0.1526766E+01
0.1483859E+01  0.1256971E+00  0.1471493E+01
0.1500341E+01  0.1139400E+00  0.1485356E+01
0.1498380E+01  0.1421255E+00  0.1487475E+01
0.1478242E+01  0.1468909E+00  0.1469475E+01
0.1453147E+01  0.1972183E+00  0.1449144E+01
0.1348833E+01  0.2067866E+00  0.1349948E+01
0.1368157E+01  0.2800764E+00  0.1369948E+01
0.1250000E+01  0.0000000E+00  0.1233335E+01
0.1496272E+01  0.2780308E-01  0.1470166E+01
0.1430228E+01  0.1622338E+00  0.1424540E+01
0.1544491E+01  0.1012427E+00  0.1524398E+01
0.1505524E+01  0.5428530E-01  0.1481010E+01
0.1576405E+01  0.1180891E+00  0.1558153E+01
0.1526885E+01  0.8834234E-01  0.1504038E+01
0.1558557E+01  0.6358195E-01  0.1532656E+01
0.1372206E+01  0.9428859E-01  0.1359296E+01
0.1414069E+01  0.8636887E-01  0.1398665E+01
0.1351230E+01  0.1581055E+00  0.1348852E+01
0.1371634E+01  0.2528708E+00  0.1372985E+01
0.1392978E+01  0.2694234E+00  0.1393524E+01
0.1321668E+01  0.2603105E+00  0.1325326E+01
0.1392566E+01  0.3027057E+00  0.1393455E+01
0.1345601E+01  0.2495441E+00  0.1347989E+01
0.1349996E+01  0.1827855E+00  0.1349674E+01
0.1475238E+01  0.9618066E-01  0.1457354E+01
0.1487372E+01  0.4556180E+00  0.1483539E+01
0.1432024E+01  0.3509343E+00  0.1431046E+01
0.1619231E+01  0.5383449E+00  0.1603818E+01
0.1532505E+01  0.4233173E+00  0.1525447E+01
0.1547332E+01  0.4788657E+00  0.1538949E+01
0.1627786E+01  0.4750493E+00  0.1612741E+01
0.1750658E+01  0.4911384E+00  0.1724175E+01
0.1783313E+01  0.5336292E+00  0.1753285E+01
0.1744147E+01  0.5299352E+00  0.1717320E+01
0.1772978E+01  0.5077787E+00  0.1744029E+01
0.1739682E+01  0.5092411E+00  0.1713493E+01
0.1715917E+01  0.5251974E+00  0.1691681E+01
0.1809547E+01  0.4999146E+00  0.1777327E+01
0.1486188E+01  0.5335558E+00  0.1482107E+01
0.1695320E+01  0.5058771E+00  0.1673410E+01
0.1793562E+01  0.5145404E+00  0.1762596E+01
0.1827482E+01  0.5355643E+00  0.1794126E+01
0.1805457E+01  0.5332234E+00  0.1773620E+01
0.1812320E+01  0.5734372E+00  0.1780248E+01
0.1794794E+01  0.5557356E+00  0.1763999E+01
0.1637325E+01  0.5533192E+00  0.1620187E+01
0.1761146E+01  0.5591762E+00  0.1732967E+01
0.1789115E+01  0.5788851E+00  0.1758598E+01
0.1693317E+01  0.6123782E+00  0.1672099E+01
0.1522396E+01  0.5359490E+00  0.1515616E+01
0.1814654E+01  0.6254783E+00  0.1782458E+01
0.1726166E+01  0.5505978E+00  0.1700688E+01
0.1691322E+01  0.5307786E+00  0.1669634E+01
0.1516987E+01  0.5143680E+00  0.1510935E+01
0.1661909E+01  0.5147686E+00  0.1642597E+01
0.1761865E+01  0.6508066E+00  0.1734131E+01
0.1692174E+01  0.5698207E+00  0.1670469E+01
0.1780214E+01  0.6037461E+00  0.1750716E+01
[...]
POINT_DATA    3280
SCALARS hauteur float
LOOKUP_TABLE DEFAULT
       2.3507314E-02
       1.4250579E-04
       2.9497582E-04
       2.3688432E-02
       1.2546361E-02
       1.1947311E-02
       2.5413970E-02
       2.9085128E-03
       1.1357127E-02
       2.4753254E-02
       2.4395748E-02
       2.0506079E-02
       2.1119443E-02
       2.1672504E-02
       2.2471112E-02
       3.1149990E-04
       2.1757925E-02
       2.3845994E-02
       1.3115585E-02
       1.9353352E-02
       2.3120615E-02
       2.2658376E-02
       2.5144899E-02
       2.3119127E-02
       2.3751044E-02
       2.4230967E-02
       2.3546889E-02
       1.9633615E-02
       2.6472455E-02
       2.3133499E-02
       2.5453282E-02
       2.3697864E-02
       2.4839047E-02
       2.6345022E-02
       1.8317676E-02
       2.1954824E-02
       2.1706965E-02
       1.9384453E-02
       1.7920654E-02
       2.3128492E-02
       2.0629759E-02
       1.7930205E-02
       1.6683707E-02
       1.8862800E-02
       1.4591681E-02
       1.7138939E-02
       2.3859846E-02
       1.5703978E-02
       1.7966120E-02
       2.0910483E-02
       1.9198511E-02
       2.0212693E-02
       1.6273247E-02
       2.5541814E-02
       2.4260513E-02
       2.5743138E-02
       2.1173168E-02
       1.6145596E-02
       2.1995877E-02
       1.4734332E-02
       1.8563031E-02
       1.7587193E-02
       2.0777727E-02
       1.2507277E-02
       1.9415309E-02
       1.9476773E-02
       1.7084226E-02
       3.9954985E-04
       2.5114745E-02
       1.2831947E-02
       2.1430762E-02
       1.4240776E-02
       1.3088342E-02
       1.7945399E-02
       9.2170975E-03
       2.5250951E-02
       2.5912703E-02
       2.7299401E-02
       2.6362633E-02
       2.6030152E-02
       2.7609260E-02
       2.6602478E-02
       2.6886062E-02
       2.6740276E-02
       2.7451964E-02
       2.5443362E-02
       2.8052610E-02
       2.4245008E-02
       2.2597994E-02
       2.3162388E-02
       2.4587833E-02
       2.7510798E-02
       2.9138066E-02
       2.8195991E-02
       2.8495029E-02
       2.2999618E-02
       1.6106418E-02
       1.5282717E-02
       1.4831823E-02
       1.2025094E-02
       1.4276129E-02
       1.3229701E-02
       9.7620031E-03
       1.6830934E-02
       1.7828985E-02
       1.8077046E-02
       2.0387282E-02
       1.7660076E-02
       1.6129845E-02
       1.9296883E-02
       1.2835195E-02
       1.4430897E-02
       1.2575411E-02
       1.5876735E-02
       1.9076078E-02
       2.0000350E-02
       8.8137888E-03
       2.1230935E-02
       1.9600217E-02
       1.0686960E-02
       9.7662991E-03
       9.9923796E-03
       1.0799022E-02
       2.0585922E-02
       2.1949763E-02
       2.3232869E-02
       1.8125052E-02
       1.1396750E-02
       1.1132923E-02
       9.6451406E-03
       6.6562322E-03
       2.2672858E-04
       8.4345658E-03
       8.1214063E-03
       7.5729394E-03
       4.1373191E-03
       5.6558360E-03
       1.7178648E-02
       6.7010778E-03
       4.6415418E-03
       2.3935428E-03
       9.3375671E-03
       1.0805715E-02
       7.4972108E-03
       9.4187053E-03
       1.0646683E-02
       1.2732371E-02
       8.2986319E-03
       2.4931135E-02
       2.7645500E-02
       2.6074982E-02
       2.8320481E-02
       2.6968860E-02
       2.7742533E-02
       2.8983478E-02
       2.6552470E-02
       1.7051467E-02
       1.3225029E-02
       2.3224021E-02
       2.7052746E-02
       1.9663909E-02
       9.8796359E-04
       2.6747817E-02
       2.8802223E-02
       2.3574730E-02
       6.3631099E-03
       1.6179291E-02
       1.7212341E-02
       1.4922349E-02
       1.8962938E-02
       2.0699576E-02
       2.4962635E-02
       2.8002014E-02
       2.9063165E-02
       8.2513332E-03
       3.7205540E-03
       2.2820607E-02
       1.0693817E-02
       5.4968405E-03
       1.3171768E-02
       7.5891765E-03
       5.1663764E-03
       1.4442527E-02
       1.2783802E-02
       2.4556096E-02
       2.8692317E-02
       2.8313250E-02
       3.0003327E-02
       2.8647470E-02
       2.9209954E-02
       2.6588062E-02
       1.1522341E-02
       2.5815750E-02
       2.7566718E-02
       1.6863725E-02
       2.3490522E-02
       2.2460356E-02
       1.7401825E-02
       8.4132615E-03
       5.5202103E-03
       7.9395185E-03
       6.3929569E-03
       8.4890713E-03
       9.9681664E-03
       3.8511452E-03
       2.5543869E-02
       1.1883276E-02
       4.7858693E-03
       3.0717227E-03
       4.1518741E-03
       4.0541607E-03
       4.9812940E-03
       1.5499685E-02
       6.9270570E-03
       5.1464568E-03
       1.2536323E-02
       2.3566499E-02
       3.9766853E-03
       8.9302356E-03
       1.2026217E-02
       2.4186639E-02
       1.3815263E-02
       7.3854098E-03
       1.2026230E-02
       5.9881484E-03
       2.1106398E-02
       1.3384110E-02
       7.7847744E-03
       1.9719447E-02
       1.4701299E-02
       8.9341339E-03
       8.4660208E-03
       1.1446640E-02
       1.1769985E-02
       3.6261935E-03
       5.5937444E-03
       4.7971224E-04
       9.3584411E-03
       2.3073571E-03
       6.2417450E-03
       7.1448637E-03
       1.4076443E-02
       1.1140965E-02
       5.2090634E-03
       3.3967263E-03
       3.4708899E-03
       4.6333818E-03
       5.6216264E-03
       5.7668420E-03
       7.6161250E-03
       1.9547949E-02
       2.7084172E-02
       1.4952106E-02
       1.7169979E-02
       1.9647939E-02
       2.1945700E-02
       4.9287670E-03
       7.7381559E-03
       4.6824518E-03
       1.9883809E-03
       1.7184053E-03
       2.7179002E-03
       9.1039156E-03
       8.7062881E-03
       1.9659315E-03
       1.2980049E-02
       3.8515028E-03
       1.1818828E-02
       2.7864566E-03
       6.4232865E-04
       7.8328309E-03
       1.6220785E-02
       1.4994463E-02
       1.7277454E-02
       7.5670278E-03
       1.6995635E-02
       2.2230274E-02
       2.1002293E-02
       2.6192024E-02
       2.4651031E-02
       2.1709914E-02
       2.5419901E-02
       1.1755594E-02
       5.5385474E-03
       2.1464321E-02
       8.2688867E-03
       2.0489534E-02
       5.5964854E-03
       2.8032946E-02
       2.8174430E-02
       2.9022933E-02
       2.9466472E-02
       2.9949821E-02
       2.5536290E-02
       2.4450033E-02
       2.6862137E-02
       2.3686364E-02
       2.3852937E-02
       1.8925754E-02
       2.2446539E-02
       1.5086550E-02
       2.2374892E-02
       2.1175105E-02
       4.8707066E-03
       3.3017417E-03
       2.7041061E-03
       6.6859926E-03
       1.4134660E-02
       3.0539154E-03
       4.4293901E-03
       1.5974567E-02
       1.9114147E-02
       4.6876119E-03
       1.1889857E-02
       4.8948300E-03
       1.0209432E-02
       8.0194822E-03
       9.8497561E-03
       9.5584915E-03
       4.6690733E-03
       2.5851213E-03
       9.8391691E-05
       6.3475229E-03
       1.4744057E-03
       9.1085533E-03
       5.6023328E-03
       1.5347013E-02
       4.1173287E-04
       3.1747084E-03
       8.0524982E-03
       7.2650179E-03
       1.3399253E-02
       1.0291084E-02
       2.8713218E-03
       1.7805451E-02
       1.3494522E-03
       1.1494022E-02
       2.1259611E-02
       1.2100517E-03
       6.5496864E-04
       1.3297372E-02
       1.3523865E-02
       1.3956631E-02
       1.3760013E-02
       7.1467735E-03
       1.6005882E-02
       1.5133041E-02
       1.5242338E-02
       1.7336848E-02
       1.4478601E-02
       9.4357429E-03
       1.3062633E-02
       1.2660670E-02
       4.3987545E-04
       3.2081840E-03
       3.3265291E-03
       4.8643030E-03
       2.7486275E-03
       2.8170671E-03
       1.2463485E-03
       1.2139554E-03
       8.0754107E-04
       1.4448008E-02
       1.6742861E-02
       1.5616875E-02
       1.2462482E-02
       1.6941969E-02
       1.0446134E-02
       4.2090425E-03
       8.5657692E-03
       4.8490692E-03
       3.5537304E-03
       2.3764551E-03
       3.6462257E-03
       4.4957367E-03
       2.7612984E-02
       3.0872414E-02
       2.9262451E-02
       2.9952640E-02
       3.0880089E-02
       2.9612897E-02
       3.0499180E-02
       3.1557084E-02
       3.1193480E-02
       3.2299072E-02
       3.0776585E-02
       3.1819044E-02
       3.2929284E-02
       3.2302714E-02
       3.2068481E-02
       3.2137724E-02
       3.1259325E-02
       2.9951754E-02
       2.9447554E-02
       2.9406680E-02
       2.9316204E-02
       3.0286126E-02
       3.0917425E-02
       3.1017256E-02
       2.7708665E-02
       2.4823959E-02
       2.7910749E-02
       2.6473967E-02
       2.5041281E-02
       2.9754865E-02
       3.0984476E-02
       3.0648753E-02
       3.0203036E-02
       3.0105760E-02
       3.0785053E-02
       3.2240125E-02
       3.1608115E-02
       2.9829694E-02
       3.1470255E-02
       3.2128166E-02
       3.2318972E-02
       3.1608712E-02
       3.0349310E-02
       3.0756614E-02
       3.3708488E-02
       3.1551688E-02
       3.3484232E-02
       3.2956953E-02
       3.2905704E-02
       3.2978111E-02
       3.4062413E-02
       3.3468263E-02
       3.3338040E-02
       3.2883854E-02
       3.3410282E-02
       3.4562614E-02
       3.3935042E-02
       3.4299734E-02
       3.3476455E-02
       3.5395879E-02
       3.2966905E-02
       3.4666485E-02
       3.1927578E-02
       3.4047789E-02
       3.4934466E-02
       3.5741062E-02
       3.5533018E-02
       3.6596295E-02
       3.6043334E-02
       3.5390449E-02
       3.4395943E-02
       3.2699759E-02
       3.3464464E-02
       3.6103630E-02
       3.6331006E-02
       3.6432666E-02
       3.7347731E-02
       3.6961875E-02
       3.5161613E-02
       3.6809170E-02
       3.2051757E-02
       3.3338143E-02
       3.6819340E-02
       3.6810462E-02
       3.6041534E-02
       3.6682711E-02
       3.7125864E-02
       3.1058078E-02
       3.3272405E-02
       3.7818305E-02
       3.2593465E-02
       3.4516772E-02
       3.7394812E-02
       3.7654248E-02
       3.1156036E-02
       3.4015762E-02
       3.4641889E-02
       3.7226723E-02
       3.7647354E-02
       3.7592500E-02
       3.8541510E-02
       3.8173207E-02
       3.1842847E-02
       3.1060469E-02
       3.2217406E-02
       2.9218931E-02
       3.2314745E-02
       3.0196631E-02
       3.0279509E-02
       3.0027644E-02
       3.8295936E-02
       3.9253465E-02
       2.8997318E-02
       3.8024105E-02
       3.8643289E-02
       3.7925915E-02
       3.8819689E-02
       2.8000335E-02
       2.9493536E-02
       2.8669438E-02
       2.7292181E-02
       2.8202393E-02
       2.8393371E-02
       3.8405338E-02
       3.7907810E-02
       3.8863793E-02
       3.7942302E-02
       2.7219834E-02
       2.6320085E-02
       3.7598007E-02
       3.9329729E-02
       3.8542742E-02
       3.6742824E-02
       2.6591698E-02
       3.9047405E-02
       3.7317993E-02
       3.6641115E-02
       2.7725650E-02
       3.8481224E-02
       3.9150069E-02
       3.7674231E-02
       4.0125224E-02
       3.7788307E-02
       3.9744794E-02
       3.9680522E-02
       3.9716927E-02
       4.0034130E-02
       3.9715942E-02
       3.9281877E-02
       3.9196776E-02
       4.0541878E-02
       4.0128819E-02
       4.0691296E-02
       4.0212135E-02
       4.0459669E-02
       2.7036262E-02
       3.6338462E-03
       2.3646574E-03
       1.0554336E-03
       1.7398893E-03
       1.1041950E-03
       1.5876666E-03
       1.4449609E-03
       2.0144006E-03
       2.2558896E-03
       1.9491666E-03
       2.6114319E-03
       2.2817350E-04
       3.5130133E-04
       1.2427255E-03
       1.3900090E-03
       9.0050733E-04
       5.6541760E-04
       1.4608191E-03
       3.9102193E-04
       4.3271580E-04
       9.6181808E-04
       6.4268778E-04
       3.7963201E-04
       5.7977087E-04
       2.2930337E-04
       2.5338398E-02
       1.4263113E-02
       1.3124659E-02
       1.6215403E-02
       1.4703934E-02
       1.5199534E-02
       1.7116375E-02
       2.2845976E-02
       2.0118990E-02
       2.2158699E-02
       2.3461062E-02
       2.0709401E-02
       2.1820783E-02
       1.9185994E-02
       2.2333249E-02
       2.3861354E-02
       2.3238702E-02
       2.4942810E-02
       2.6005620E-02
       2.5087244E-02
       2.3394986E-02
       2.0918127E-02
       2.2155813E-02
       2.1541786E-02
       2.2193499E-02
       2.3752401E-02
       2.2679612E-02
       2.1623227E-02
       2.2690650E-02
       2.1920863E-02
       2.2830696E-02
       1.9696494E-02
       2.2672434E-02
       2.0558692E-02
       2.4179610E-02
       2.1649449E-02
       2.3691301E-02
       2.4887678E-02
       2.1344903E-02
       2.1634339E-02
       2.2921312E-02
       2.4847086E-02
       2.6119430E-02
       2.5271182E-02
       2.4280421E-02
       2.6905512E-02
       2.4933728E-02
       2.5651587E-02
       2.5021061E-02
       2.3944095E-02
       2.5995149E-02
       2.5824898E-02
       2.7542393E-02
       2.5829601E-02
       2.6745717E-02
       2.8672958E-02
       2.7763433E-02
       2.9166628E-02
       6.4260996E-03
       8.3121320E-03
       9.9954487E-03
       1.0938591E-02
       1.0701132E-02
       1.0560794E-02
       3.4159259E-03
       8.9754905E-04
       3.9106138E-03
       1.6999344E-03
       1.1821390E-02
       1.7479162E-02
       1.1107306E-02
       9.6438586E-03
       1.4757796E-02
       1.5350308E-02
       1.3092417E-02
       1.0457992E-02
       1.0921286E-02
       1.2365034E-02
       1.2892809E-02
       1.5039306E-02
       8.8555509E-03
       6.9717486E-03
       9.0392307E-03
       8.8290861E-03
       6.6908616E-03
       7.6107179E-03
       8.9408305E-03
       4.1780768E-03
       4.0221993E-03
       5.8832332E-03
       4.1168471E-03
       5.2490391E-03
       5.3556416E-03
       1.0137747E-02
       4.1666662E-03
       5.9053307E-03
       3.3138309E-03
       1.5740452E-03
       1.5922251E-03
       9.6508954E-04
       1.8124245E-02
       1.8998654E-02
       1.8744231E-02
       5.0013370E-03
       5.9164573E-03
       6.7640077E-03
       4.1927058E-03
       4.3341520E-03
       2.7920914E-03
       2.7940930E-02
       2.7159948E-02
       2.8997124E-02
       2.7151247E-02
       2.9170177E-02
       2.5401965E-02
       3.0381473E-02
       2.4930198E-02
       3.1498421E-02
       3.0172138E-02
       2.7106883E-02
       2.8421240E-02
       1.7131873E-02
       3.1050750E-02
       2.1961877E-02
       2.2287409E-02
       1.0832239E-02
       2.0921705E-02
       3.2182428E-02
       1.4411723E-02
       1.0674769E-02
       1.4503698E-02
       1.4077260E-02
       3.0678700E-02
       3.2147043E-02
       2.4195921E-02
       2.2738851E-02
       3.1365853E-02
       3.3710687E-02
       3.3930647E-02
       3.1303177E-02
       3.3887378E-02
       3.5848313E-02
       3.5241786E-02
       3.8251888E-02
       3.7062499E-02
       3.8958687E-02
       3.8408688E-02
       3.8963182E-02
       3.8322050E-02
       3.8985282E-02
       4.0047722E-02
       3.9516604E-02
       3.9549774E-02
       3.9617834E-02
       3.6748561E-02
       3.7399313E-02
       3.5852260E-02
       3.7145438E-02
       3.9583048E-02
       3.9758638E-02
       3.9045210E-02
       3.8822916E-02
       3.9159564E-02
       4.0367528E-02
       4.1429568E-02
       2.1071459E-03
       4.4241201E-04
       7.8061459E-04
       3.3145222E-04
       1.7085683E-02
       1.8306910E-02
       1.6205409E-02
       1.7920146E-02
       1.7732327E-02
       2.4950760E-02
       2.7667509E-02
       2.7113319E-02
       1.9320677E-02
       1.8026044E-02
       1.8660238E-02
       2.4448926E-02
       2.3598209E-02
       2.1367618E-02
       2.7336529E-02
       3.0265497E-02
       1.4065397E-03
       7.3391720E-04
       2.2173205E-03
       1.0455573E-03
       1.3724410E-03
       3.8009203E-03
       3.4238427E-04
       1.2555589E-03
       1.3296677E-04
       2.6170728E-04
       3.9048130E-04
       5.8595510E-04
       2.1758054E-04
       5.8868824E-04
       1.5824031E-04
       5.8318030E-03
       7.4879068E-03
       1.8259690E-03
       2.5432973E-03
       1.5420597E-02
       1.6476950E-02
       1.8467767E-02
       1.8773396E-02
       1.9177924E-02
       2.0422954E-02
       2.0772484E-02
       9.3673605E-03
       8.7878164E-03
       1.2757301E-02
       1.3841468E-02
       4.3240840E-03
       1.0803921E-02
       1.2024972E-02
       2.5258401E-03
       1.1089042E-02
       1.3772339E-02
       1.5466949E-02
       1.5441774E-02
       1.6648631E-02
       1.5101323E-02
       6.7988390E-04
       1.7058158E-02
       1.3122950E-02
       1.6650704E-02
       1.2027032E-02
       1.2323080E-02
       1.1622702E-02
       5.0994862E-03
       8.4971960E-03
       6.4447453E-03
       7.6832837E-03
       6.1656251E-03
       2.6974949E-03
       1.1332034E-03
       1.6172474E-02
       1.5257347E-02
       1.7647644E-02
       6.8940888E-03
       7.1038012E-03
       5.9999094E-03
       9.0432454E-03
       7.8027373E-03
       6.9173302E-03
       1.1173966E-02
       3.3130919E-03
       9.6141436E-04
       6.9239168E-04
       2.2268196E-02
       1.7523384E-02
       1.1528632E-02
       1.3815578E-02
       1.1150161E-02
       1.6087301E-02
       1.8645470E-02
       1.7659002E-02
       3.3003339E-02
       3.5131462E-02
       3.5248392E-02
       3.5438854E-02
       3.5443979E-02
       3.5941158E-02
       3.4638145E-02
       3.4419954E-02
       3.5126494E-02
       3.4394083E-02
       3.8267587E-02
       3.8195314E-02
       4.3110553E-02
       3.7999878E-02
       3.6529834E-02
       4.0708959E-02
       3.9973989E-02
       4.0768125E-02
       3.9989192E-02
       3.8664024E-02
       4.1801798E-02
       3.3804810E-02
       4.1424656E-02
       4.2510886E-02
       3.6760556E-02
       3.2820381E-02
       4.2522836E-02
       4.2185175E-02
       4.0377549E-02
       4.0680150E-02
       4.0895628E-02
       3.4037419E-02
       4.1744996E-02
       3.6917168E-02
       4.1308303E-02
       3.5622546E-02
       4.2159367E-02
       4.1129876E-02
       4.1738952E-02
       4.1413397E-02
       4.1901136E-02
       4.0494386E-02
       4.2452061E-02
       3.8597685E-02
       4.2169741E-02
       3.8168961E-02
       3.7375939E-02
       4.1954438E-02
       4.2480799E-02
       3.8796145E-02
       3.7328634E-02
       1.8503557E-02
       4.2896497E-02
       1.6228445E-02
       4.3269982E-02
       3.9060323E-02
       4.3061991E-02
       3.5428075E-02
       3.4318673E-02
       4.3128531E-02
       4.3511500E-02
       4.3496946E-02
       4.4054889E-02
       4.2847107E-02
       4.2742249E-02
       3.8186230E-02
       3.6330406E-02
       3.7809162E-02
       3.5838087E-02
       3.5228960E-02
       4.1169786E-02
       3.6699937E-02
       3.7784965E-02
       3.4827193E-02
       3.5448015E-02
       3.6903086E-02
       4.4649619E-02
       3.9315666E-02
       4.1969503E-02
       3.6399041E-02
       4.1707846E-02
       3.6876886E-02
       3.6256438E-02
       3.5226733E-02
       3.4370724E-02
       3.5737588E-02
       3.6216129E-02
       3.6370984E-02
       3.5991252E-02
       3.5484928E-02
       3.5920608E-02
       3.4985015E-02
       3.5852363E-02
       3.4258325E-02
       3.3939353E-02
       3.4599459E-02
       3.3890722E-02
       3.4606167E-02
       3.5250683E-02
       3.4767944E-02
       3.3997988E-02
       3.3265366E-02
       3.3073332E-02
       3.2936331E-02
       3.1875346E-02
       3.3580259E-02
       3.3917096E-02
       3.7396181E-02
       3.9538124E-02
       3.8630774E-02
       3.8935683E-02
       4.0115371E-02
       4.1082490E-02
       4.0823446E-02
       4.1079946E-02
       4.0847481E-02
       4.0394932E-02
       4.1217737E-02
       4.0714693E-02
       4.1758870E-02
       4.0717836E-02
       4.1659955E-02
       4.1342861E-02
       4.2069766E-02
       4.1055732E-02
       4.1105107E-02
       4.1076231E-02
       4.0182108E-02
       4.1492803E-02
       4.0681835E-02
       4.0409775E-02
       4.1312958E-02
       4.1380899E-02