# vtk DataFile Version 3.0
# Solution du M1 TR
ASCII
DATASET UNSTRUCTURED_GRID
POINTS   3280  float
0.0000000E+00  0.0000000E+00  0.2583721E-01
0.2000000E+01  0.0000000E+00  0.1960198E+01
0.2000000E+01  0.1000000E+01  0.1960333E+01
0.0000000E+00  0.1000000E+01  0.2576157E-01
0.1000000E+01  0.0000000E+00  0.9910829E+00
0.1000000E+01  0.1000000E+01  0.9910582E+00
0.1500000E+01  0.5000000E+00  0.1497339E+01
0.1500000E+01  0.0000000E+00  0.1474438E+01
0.1723284E+01  0.3570951E+00  0.1705205E+01
0.1500000E+01  0.2500000E+00  0.1495512E+01
0.1515103E+01  0.2763186E+00  0.1510368E+01
0.1594866E+01  0.2826386E+00  0.1585994E+01
0.1562500E+01  0.1875000E+00  0.1553768E+01
0.1534357E+01  0.1819434E+00  0.1526399E+01
0.1561083E+01  0.3343258E+00  0.1554375E+01
0.1750000E+01  0.0000000E+00  0.1715540E+01
0.1503267E+01  0.1622339E+00  0.1495780E+01
0.1514910E+01  0.2261192E+00  0.1509317E+01
0.1610795E+01  0.1290247E+00  0.1594819E+01
0.1539062E+01  0.1536458E+00  0.1529042E+01
0.1510772E+01  0.1982718E+00  0.1504460E+01
0.1541862E+01  0.2179813E+00  0.1534849E+01
0.1475030E+01  0.2178147E+00  0.1471113E+01
0.1539206E+01  0.2578835E+00  0.1532961E+01
0.1521085E+01  0.2465697E+00  0.1515485E+01
0.1496499E+01  0.2146241E+00  0.1491406E+01
0.1481433E+01  0.1870688E+00  0.1475868E+01
0.1586261E+01  0.1960616E+00  0.1576208E+01
0.1460896E+01  0.2899333E+00  0.1458848E+01
0.1542195E+01  0.2867649E+00  0.1536122E+01
0.1486080E+01  0.2754813E+00  0.1482667E+01
0.1536278E+01  0.3247610E+00  0.1530919E+01
0.1510131E+01  0.3295675E+00  0.1506172E+01
0.1455545E+01  0.2514402E+00  0.1453222E+01
0.1610995E+01  0.1909452E+00  0.1599768E+01
0.1564462E+01  0.2395252E+00  0.1556771E+01
0.1571524E+01  0.3026484E+00  0.1563987E+01
0.1613657E+01  0.2555806E+00  0.1603610E+01
0.1633998E+01  0.2714643E+00  0.1622651E+01
0.1534973E+01  0.3650914E+00  0.1529447E+01
0.1583157E+01  0.2286349E+00  0.1574130E+01
0.1586501E+01  0.1581416E+00  0.1574766E+01
0.1651985E+01  0.2274641E+00  0.1639322E+01
0.1619170E+01  0.2936434E+00  0.1608780E+01
0.1678889E+01  0.2641389E+00  0.1664418E+01
0.1642286E+01  0.2930521E+00  0.1630321E+01
0.1526415E+01  0.3446283E+00  0.1521488E+01
0.1662420E+01  0.3044259E+00  0.1649102E+01
0.1636786E+01  0.2469276E+00  0.1625322E+01
0.1588953E+01  0.3366240E+00  0.1580634E+01
0.1616427E+01  0.3314099E+00  0.1606383E+01
0.1598305E+01  0.3102698E+00  0.1589259E+01
0.1655410E+01  0.2614708E+00  0.1642568E+01
0.1487553E+01  0.3072167E+00  0.1484437E+01
0.1520126E+01  0.3036443E+00  0.1515411E+01
0.1477894E+01  0.2544664E+00  0.1474693E+01
0.1567847E+01  0.2133479E+00  0.1559259E+01
0.1663947E+01  0.3299725E+00  0.1650829E+01
0.1567022E+01  0.2696000E+00  0.1559614E+01
0.1678598E+01  0.3509559E+00  0.1664148E+01
0.1611933E+01  0.3827205E+00  0.1601788E+01
0.1640491E+01  0.3197373E+00  0.1628873E+01
0.1588015E+01  0.2526666E+00  0.1579282E+01
0.1708471E+01  0.3144917E+00  0.1691662E+01
0.1606944E+01  0.3564315E+00  0.1597324E+01
0.1604614E+01  0.2314093E+00  0.1594570E+01
0.1643491E+01  0.3631133E+00  0.1631514E+01
0.2000000E+01  0.5000000E+00  0.1960494E+01
0.1494727E+01  0.3621796E+00  0.1491384E+01
0.1701807E+01  0.3477237E+00  0.1685393E+01
0.1572156E+01  0.3701847E+00  0.1564686E+01
0.1688392E+01  0.3285111E+00  0.1673384E+01
0.1695932E+01  0.3904821E+00  0.1679934E+01
0.1636337E+01  0.3418163E+00  0.1625064E+01
0.1505941E+01  0.9448485E-01  0.1487273E+01
0.1423727E+01  0.1910920E+00  0.1420692E+01
0.1481447E+01  0.3359634E+00  0.1478889E+01
0.1441613E+01  0.3726133E+00  0.1441076E+01
0.1466699E+01  0.3599060E+00  0.1464885E+01
0.1476682E+01  0.4107296E+00  0.1474535E+01
0.1434448E+01  0.3273535E+00  0.1434124E+01
0.1464523E+01  0.3867258E+00  0.1463005E+01
0.1456903E+01  0.3373583E+00  0.1455612E+01
0.1454188E+01  0.3132491E+00  0.1452699E+01
0.1424069E+01  0.2919612E+00  0.1423604E+01
0.1490969E+01  0.3884111E+00  0.1488028E+01
0.1428051E+01  0.4202828E+00  0.1428456E+01
0.1513790E+01  0.3782958E+00  0.1509490E+01
0.1547789E+01  0.4092466E+00  0.1541817E+01
0.1535154E+01  0.3889763E+00  0.1529733E+01
0.1512699E+01  0.4170463E+00  0.1508785E+01
0.1441554E+01  0.3983607E+00  0.1441225E+01
0.1395941E+01  0.3853832E+00  0.1397791E+01
0.1420578E+01  0.3854393E+00  0.1421176E+01
0.1408336E+01  0.3518173E+00  0.1409341E+01
0.1549967E+01  0.3074339E+00  0.1543769E+01
0.1651639E+01  0.4114272E+00  0.1639142E+01
0.1668616E+01  0.3788978E+00  0.1654832E+01
0.1674624E+01  0.4027285E+00  0.1660560E+01
0.1706988E+01  0.4343785E+00  0.1690334E+01
0.1673984E+01  0.4357547E+00  0.1659834E+01
0.1695270E+01  0.4139894E+00  0.1679638E+01
0.1737273E+01  0.4034108E+00  0.1717671E+01
0.1645630E+01  0.3875965E+00  0.1633587E+01
0.1625874E+01  0.4052508E+00  0.1615056E+01
0.1627808E+01  0.4540126E+00  0.1617443E+01
0.1587158E+01  0.4136289E+00  0.1578855E+01
0.1633718E+01  0.4293591E+00  0.1622799E+01
0.1651607E+01  0.4466828E+00  0.1639434E+01
0.1605650E+01  0.4356658E+00  0.1596439E+01
0.1682168E+01  0.4808869E+00  0.1667259E+01
0.1671711E+01  0.4594749E+00  0.1658077E+01
0.1698428E+01  0.4596870E+00  0.1682668E+01
0.1646221E+01  0.4851828E+00  0.1634373E+01
0.1607747E+01  0.4151289E+00  0.1598164E+01
0.1584205E+01  0.4841185E+00  0.1576442E+01
0.1747573E+01  0.4622079E+00  0.1727103E+01
0.1568396E+01  0.4481495E+00  0.1561374E+01
0.1601760E+01  0.4629165E+00  0.1593086E+01
0.1723356E+01  0.4540167E+00  0.1705295E+01
0.1732897E+01  0.4294241E+00  0.1713578E+01
0.1722218E+01  0.4972746E+00  0.1703927E+01
0.1715121E+01  0.4754441E+00  0.1697620E+01
0.1584567E+01  0.4345797E+00  0.1576661E+01
0.1563465E+01  0.4258523E+00  0.1556828E+01
0.1534166E+01  0.4440258E+00  0.1529105E+01
0.1615090E+01  0.4918227E+00  0.1605536E+01
0.1717469E+01  0.4134541E+00  0.1699825E+01
0.1718488E+01  0.3909170E+00  0.1700434E+01
0.1741353E+01  0.3769080E+00  0.1721378E+01
0.1781199E+01  0.4241746E+00  0.1757101E+01
0.2000000E+01  0.2500000E+00  0.1960356E+01
0.1756308E+01  0.4199875E+00  0.1734966E+01
0.1762447E+01  0.3937207E+00  0.1740483E+01
0.1765097E+01  0.4438197E+00  0.1742681E+01
0.1807974E+01  0.4625425E+00  0.1779540E+01
0.1789176E+01  0.4471344E+00  0.1763614E+01
0.1514158E+01  0.1287364E+00  0.1502662E+01
0.1777674E+01  0.4803377E+00  0.1753901E+01
0.1811145E+01  0.4395021E+00  0.1783479E+01
0.1850404E+01  0.4566449E+00  0.1817779E+01
0.1748483E+01  0.3522599E+00  0.1727895E+01
0.1731235E+01  0.3304535E+00  0.1712435E+01
0.1777870E+01  0.3654441E+00  0.1754677E+01
0.1748149E+01  0.2821176E+00  0.1727696E+01
0.1732875E+01  0.3039003E+00  0.1713893E+01
0.1708314E+01  0.2807181E+00  0.1691742E+01
0.1767650E+01  0.3193756E+00  0.1745435E+01
0.1372661E+01  0.1704076E+00  0.1370228E+01
0.1411157E+01  0.2494459E+00  0.1410774E+01
0.1448000E+01  0.2246098E+00  0.1445377E+01
0.1360382E+01  0.2278583E+00  0.1361497E+01
0.1433680E+01  0.2431125E+00  0.1432253E+01
0.1388814E+01  0.2314916E+00  0.1388851E+01
0.1314549E+01  0.2124991E+00  0.1317142E+01
0.1404157E+01  0.2007613E+00  0.1402690E+01
0.1415035E+01  0.1072182E+00  0.1404677E+01
0.1520299E+01  0.1091515E+00  0.1505313E+01
0.1459010E+01  0.1690672E+00  0.1453489E+01
0.1436337E+01  0.2690050E+00  0.1435112E+01
0.1443480E+01  0.1263360E+00  0.1435006E+01
0.1625000E+01  0.0000000E+00  0.1594376E+01
0.1414954E+01  0.2197329E+00  0.1413545E+01
0.1335299E+01  0.2266424E+00  0.1337341E+01
0.1396801E+01  0.1612344E+00  0.1392691E+01
0.1792033E+01  0.3934232E+00  0.1767210E+01
0.1541310E+01  0.1264947E+00  0.1528574E+01
0.1483859E+01  0.1256971E+00  0.1472673E+01
0.1500341E+01  0.1139400E+00  0.1487067E+01
0.1498380E+01  0.1421255E+00  0.1488551E+01
0.1478242E+01  0.1468909E+00  0.1470175E+01
0.1453147E+01  0.1972183E+00  0.1449346E+01
0.1348833E+01  0.2067866E+00  0.1349817E+01
0.1368157E+01  0.2800764E+00  0.1370040E+01
0.1250000E+01  0.0000000E+00  0.1233230E+01
0.1496272E+01  0.2780308E-01  0.1471824E+01
0.1430228E+01  0.1622338E+00  0.1424847E+01
0.1544491E+01  0.1012427E+00  0.1526820E+01
0.1505524E+01  0.5428530E-01  0.1483017E+01
0.1576405E+01  0.1180891E+00  0.1560545E+01
0.1526885E+01  0.8834234E-01  0.1506430E+01
0.1558557E+01  0.6358195E-01  0.1535041E+01
0.1372206E+01  0.9428859E-01  0.1359947E+01
0.1414069E+01  0.8636887E-01  0.1399682E+01
0.1351230E+01  0.1581055E+00  0.1348856E+01
0.1371634E+01  0.2528708E+00  0.1372975E+01
0.1392978E+01  0.2694234E+00  0.1393644E+01
0.1321668E+01  0.2603105E+00  0.1325225E+01
0.1392566E+01  0.3027057E+00  0.1393727E+01
0.1345601E+01  0.2495441E+00  0.1347905E+01
0.1349996E+01  0.1827855E+00  0.1349574E+01
0.1475238E+01  0.9618066E-01  0.1459060E+01
0.1487372E+01  0.4556180E+00  0.1485011E+01
0.1432024E+01  0.3509343E+00  0.1431836E+01
0.1619231E+01  0.5383449E+00  0.1609209E+01
0.1532505E+01  0.4233173E+00  0.1527501E+01
0.1547332E+01  0.4788657E+00  0.1541792E+01
0.1627786E+01  0.4750493E+00  0.1617176E+01
0.1750658E+01  0.4911384E+00  0.1729806E+01
0.1783313E+01  0.5336292E+00  0.1757784E+01
0.1744147E+01  0.5299352E+00  0.1723093E+01
0.1772978E+01  0.5077787E+00  0.1748996E+01
0.1739682E+01  0.5092411E+00  0.1719337E+01
0.1715917E+01  0.5251974E+00  0.1697891E+01
0.1809547E+01  0.4999146E+00  0.1780504E+01
0.1486188E+01  0.5335558E+00  0.1483915E+01
0.1695320E+01  0.5058771E+00  0.1679562E+01
0.1793562E+01  0.5145404E+00  0.1766530E+01
0.1827482E+01  0.5355643E+00  0.1796549E+01
0.1805457E+01  0.5332234E+00  0.1777047E+01
0.1812320E+01  0.5734372E+00  0.1783613E+01
0.1794794E+01  0.5557356E+00  0.1768078E+01
0.1637325E+01  0.5533192E+00  0.1626029E+01
0.1761146E+01  0.5591762E+00  0.1738307E+01
0.1789115E+01  0.5788851E+00  0.1762827E+01
0.1693317E+01  0.6123782E+00  0.1677780E+01
0.1522396E+01  0.5359490E+00  0.1518271E+01
0.1814654E+01  0.6254783E+00  0.1785569E+01
0.1726166E+01  0.5505978E+00  0.1706818E+01
0.1691322E+01  0.5307786E+00  0.1675964E+01
0.1516987E+01  0.5143680E+00  0.1513289E+01
0.1661909E+01  0.5147686E+00  0.1648694E+01
0.1761865E+01  0.6508066E+00  0.1738898E+01
0.1692174E+01  0.5698207E+00  0.1676775E+01
0.1780214E+01  0.6037461E+00  0.1755406E+01
[...]
POINT_DATA    3280
SCALARS hauteur float
LOOKUP_TABLE DEFAULT
       2.5837207E-02
       6.4598809E-05
       1.9937879E-04
       2.5761567E-02
       1.1016307E-02
       1.0991614E-02
       2.7239628E-02
       4.3378471E-03
       1.6272157E-02
       2.5412536E-02
       2.5465558E-02
       2.2918977E-02
       2.2413818E-02
       2.2626475E-02
       2.4409727E-02
       4.2304257E-04
       2.2477735E-02
       2.4603637E-02
       1.6132092E-02
       2.0658589E-02
       2.3803528E-02
       2.3722151E-02
       2.5484860E-02
       2.4437119E-02
       2.4719958E-02
       2.4737327E-02
       2.3965614E-02
       2.1566589E-02
       2.7072865E-02
       2.4667968E-02
       2.6209975E-02
       2.5264066E-02
       2.6143912E-02
       2.6691555E-02
       2.0885589E-02
       2.3494125E-02
       2.3789041E-02
       2.2118321E-02
       2.1223897E-02
       2.5070723E-02
       2.2530728E-02
       1.9889394E-02
       2.0267004E-02
       2.1886061E-02
       1.8994610E-02
       2.0770662E-02
       2.5500389E-02
       1.9819340E-02
       2.1162572E-02
       2.3353980E-02
       2.2177179E-02
       2.2814475E-02
       2.0155255E-02
       2.6536459E-02
       2.5585914E-02
       2.6258538E-02
       2.2664985E-02
       2.0050135E-02
       2.3827818E-02
       1.9009777E-02
       2.1986624E-02
       2.1082296E-02
       2.2922124E-02
       1.7246591E-02
       2.2412385E-02
       2.1940725E-02
       2.0783068E-02
       3.6084901E-04
       2.6451826E-02
       1.7508678E-02
       2.3868659E-02
       1.8647092E-02
       1.7806854E-02
       2.1344660E-02
       1.1351046E-02
       2.5344191E-02
       2.6972494E-02
       2.8199484E-02
       2.7422762E-02
       2.7287782E-02
       2.8270308E-02
       2.7674526E-02
       2.7750145E-02
       2.7497986E-02
       2.7921548E-02
       2.6778875E-02
       2.8871654E-02
       2.5875023E-02
       2.4880029E-02
       2.5179174E-02
       2.6239377E-02
       2.8405266E-02
       2.9675754E-02
       2.8914882E-02
       2.9078372E-02
       2.4698512E-02
       2.0426143E-02
       1.9477166E-02
       1.9316429E-02
       1.7372216E-02
       1.9217964E-02
       1.8161100E-02
       1.5027774E-02
       2.0760204E-02
       2.1591413E-02
       2.2083492E-02
       2.3334297E-02
       2.1647077E-02
       2.0749261E-02
       2.2795554E-02
       1.8621712E-02
       1.9688706E-02
       1.8095703E-02
       2.0966608E-02
       2.2465052E-02
       2.3815741E-02
       1.4364947E-02
       2.4241324E-02
       2.3254444E-02
       1.6291983E-02
       1.5223245E-02
       1.6038515E-02
       1.6687641E-02
       2.3679220E-02
       2.4528559E-02
       2.5520315E-02
       2.2640389E-02
       1.6590931E-02
       1.6201074E-02
       1.4736093E-02
       1.1406490E-02
       2.2287682E-04
       1.3666982E-02
       1.3167569E-02
       1.2768946E-02
       7.6055397E-03
       1.0102353E-02
       1.8686044E-02
       1.1662821E-02
       8.4361177E-03
       4.2599574E-03
       1.4265285E-02
       1.5709729E-02
       1.2245934E-02
       1.4393498E-02
       1.5560305E-02
       1.7481176E-02
       1.3020178E-02
       2.4929111E-02
       2.7746183E-02
       2.6240795E-02
       2.8231730E-02
       2.7150987E-02
       2.7720677E-02
       2.8796247E-02
       2.6521964E-02
       1.7848658E-02
       1.5318742E-02
       2.3562500E-02
       2.7406769E-02
       2.0300206E-02
       1.7681529E-03
       2.6796125E-02
       2.8658375E-02
       2.3732208E-02
       1.0898700E-02
       1.7988066E-02
       1.8392541E-02
       1.6632878E-02
       2.0038720E-02
       2.1399679E-02
       2.5165257E-02
       2.7870678E-02
       2.9155288E-02
       8.1470241E-03
       5.3787091E-03
       2.3127701E-02
       1.3115771E-02
       7.5036640E-03
       1.5562993E-02
       9.9814900E-03
       7.5518268E-03
       1.5093841E-02
       1.3801219E-02
       2.4560728E-02
       2.8682326E-02
       2.8432580E-02
       2.9902374E-02
       2.8919985E-02
       2.9126050E-02
       2.6487930E-02
       1.3228409E-02
       2.7287424E-02
       2.8356813E-02
       2.2255202E-02
       2.5544206E-02
       2.5303566E-02
       2.1836861E-02
       1.4044561E-02
       1.0018702E-02
       1.3712832E-02
       1.1359436E-02
       1.4332997E-02
       1.6178496E-02
       7.0280678E-03
       2.7351716E-02
       1.8035121E-02
       8.7204263E-03
       5.4950722E-03
       7.5788942E-03
       7.4192788E-03
       9.0611134E-03
       2.1341098E-02
       1.2266279E-02
       9.3756260E-03
       1.8216665E-02
       2.6221070E-02
       7.0876214E-03
       1.5059532E-02
       1.8355726E-02
       2.6540960E-02
       1.9912346E-02
       1.2153068E-02
       1.8331644E-02
       1.0677969E-02
       2.4611603E-02
       1.9677580E-02
       1.3345949E-02
       2.3888009E-02
       1.8469019E-02
       1.4622348E-02
       1.3727124E-02
       1.5792834E-02
       1.5409854E-02
       6.1894302E-03
       7.9115765E-03
       3.6570195E-04
       1.2401071E-02
       3.8064920E-03
       1.0322814E-02
       1.2300736E-02
       1.8597217E-02
       1.6196801E-02
       9.2787897E-03
       6.2346406E-03
       6.3481308E-03
       8.3400654E-03
       9.7594490E-03
       9.8201868E-03
       1.2281961E-02
       2.0675602E-02
       2.6994059E-02
       1.7414330E-02
       1.8999717E-02
       2.1124140E-02
       2.2178094E-02
       7.4954602E-03
       1.0411480E-02
       7.0280553E-03
       3.2957281E-03
       3.1083609E-03
       4.3933571E-03
       1.1992607E-02
       1.2165720E-02
       3.5570299E-03
       1.6591131E-02
       6.3669537E-03
       1.5319581E-02
       4.7174031E-03
       1.0985312E-03
       1.1606744E-02
       1.9160145E-02
       1.7962077E-02
       1.9671683E-02
       9.4587168E-03
       1.8072405E-02
       2.2351958E-02
       2.1569724E-02
       2.6051792E-02
       2.4607779E-02
       2.1739670E-02
       2.5419865E-02
       1.2964079E-02
       6.4993285E-03
       2.1852913E-02
       9.8525618E-03
       2.0936486E-02
       7.4023782E-03
       2.8340863E-02
       2.8638473E-02
       2.9395295E-02
       2.9897609E-02
       3.0144159E-02
       2.6992826E-02
       2.6302563E-02
       2.7997178E-02
       2.5961799E-02
       2.6204978E-02
       2.3423083E-02
       2.5452663E-02
       2.1034490E-02
       2.5049164E-02
       2.4421759E-02
       8.8323487E-03
       6.0197346E-03
       4.7841723E-03
       1.1904686E-02
       1.9844021E-02
       5.2620139E-03
       8.0137539E-03
       2.1459475E-02
       2.3661749E-02
       7.3745198E-03
       1.6840319E-02
       8.1294284E-03
       1.5637006E-02
       1.2389647E-02
       1.3961783E-02
       1.4410647E-02
       8.0839970E-03
       4.1368713E-03
       1.4631683E-04
       9.9705727E-03
       2.2881570E-03
       1.2660529E-02
       9.8374734E-03
       1.9829839E-02
       4.2434155E-04
       5.6534430E-03
       1.1887886E-02
       1.0424392E-02
       1.7668061E-02
       1.6364624E-02
       4.0792247E-03
       2.2746436E-02
       2.0241933E-03
       1.4465932E-02
       2.4889992E-02
       1.7565974E-03
       8.4367135E-04
       1.7050008E-02
       1.6574993E-02
       1.8574712E-02
       1.8846052E-02
       9.5710125E-03
       1.8735755E-02
       1.7532490E-02
       1.8440410E-02
       2.0135761E-02
       1.7097375E-02
       1.2169288E-02
       1.5597137E-02
       1.7452405E-02
       6.0647664E-04
       5.8831964E-03
       5.9691634E-03
       8.5227094E-03
       4.6015954E-03
       4.4750084E-03
       2.1861964E-03
       2.2117651E-03
       1.4310726E-03
       1.8466094E-02
       1.9993100E-02
       1.6643012E-02
       1.3866964E-02
       1.7614208E-02
       1.1471432E-02
       5.5439916E-03
       9.9033427E-03
       6.0015565E-03
       5.0064369E-03
       3.8082107E-03
       5.4396023E-03
       6.5989072E-03
       2.7855213E-02
       3.1169276E-02
       2.9451412E-02
       3.0041313E-02
       3.0976427E-02
       2.9604166E-02
       3.0490109E-02
       3.1456640E-02
       3.1174246E-02
       3.2302306E-02
       3.0652966E-02
       3.1793378E-02
       3.2785283E-02
       3.2221630E-02
       3.1864353E-02
       3.1989582E-02
       3.1082125E-02
       2.9776174E-02
       2.9297101E-02
       2.9159547E-02
       2.9099412E-02
       3.0074842E-02
       3.0651720E-02
       3.0786763E-02
       2.7499065E-02
       2.4653307E-02
       2.7721677E-02
       2.6351339E-02
       2.4916059E-02
       3.0059599E-02
       3.1196538E-02
       3.0846528E-02
       3.0510517E-02
       3.0497092E-02
       3.1061000E-02
       3.2282404E-02
       3.1763706E-02
       3.0289706E-02
       3.1635063E-02
       3.2139904E-02
       3.2370559E-02
       3.1723752E-02
       3.0737216E-02
       3.1041686E-02
       3.3538563E-02
       3.1595580E-02
       3.3378624E-02
       3.2914597E-02
       3.2871900E-02
       3.2889999E-02
       3.3840202E-02
       3.3295239E-02
       3.3120083E-02
       3.2816702E-02
       3.3318077E-02
       3.4291252E-02
       3.3759910E-02
       3.4065538E-02
       3.3120800E-02
       3.4986390E-02
       3.2802780E-02
       3.4361571E-02
       3.1824237E-02
       3.3749028E-02
       3.4605816E-02
       3.5252845E-02
       3.5099829E-02
       3.5985728E-02
       3.5531941E-02
       3.4944097E-02
       3.4080263E-02
       3.2491040E-02
       3.3265847E-02
       3.5572196E-02
       3.5691321E-02
       3.5820983E-02
       3.6524587E-02
       3.6253397E-02
       3.4768600E-02
       3.6174389E-02
       3.2007384E-02
       3.2876586E-02
       3.6099229E-02
       3.6020206E-02
       3.5528702E-02
       3.6070367E-02
       3.6423912E-02
       3.1159089E-02
       3.2887490E-02
       3.6948923E-02
       3.2291667E-02
       3.3941520E-02
       3.6619955E-02
       3.6848310E-02
       3.1119220E-02
       3.3535009E-02
       3.4128937E-02
       3.6515409E-02
       3.6843137E-02
       3.6804938E-02
       3.7557161E-02
       3.7268431E-02
       3.1681617E-02
       3.1112948E-02
       3.1921226E-02
       2.9731668E-02
       3.2025256E-02
       3.0451902E-02
       3.0592144E-02
       3.0267828E-02
       3.7351072E-02
       3.8120572E-02
       2.9622672E-02
       3.7144734E-02
       3.7605003E-02
       3.7017653E-02
       3.7781436E-02
       2.8885242E-02
       2.9962860E-02
       2.9379324E-02
       2.8459182E-02
       2.9051556E-02
       2.9120181E-02
       3.7419725E-02
       3.6991871E-02
       3.7806303E-02
       3.7067921E-02
       2.8356718E-02
       2.7788690E-02
       3.6692995E-02
       3.8182590E-02
       3.7546308E-02
       3.6039139E-02
       2.7999441E-02
       3.7906192E-02
       3.6559214E-02
       3.5997926E-02
       2.8713114E-02
       3.7459190E-02
       3.8019537E-02
       3.6691434E-02
       3.8805382E-02
       3.6852151E-02
       3.8485505E-02
       3.8452806E-02
       3.8488364E-02
       3.8729635E-02
       3.8479527E-02
       3.8137843E-02
       3.8045674E-02
       3.9131659E-02
       3.8805000E-02
       3.9252773E-02
       3.8873933E-02
       3.9069278E-02
       2.8048931E-02
       6.6014642E-03
       4.1505391E-03
       1.5883534E-03
       2.9218440E-03
       1.7454244E-03
       2.5789407E-03
       2.3809152E-03
       3.5486513E-03
       4.0598675E-03
       3.4389040E-03
       4.7398811E-03
       1.7974426E-04
       3.5416284E-04
       2.0495520E-03
       2.3689323E-03
       1.4300335E-03
       7.4757521E-04
       2.4878061E-03
       4.9211051E-04
       4.8180190E-04
       1.5629389E-03
       9.3428244E-04
       5.2520921E-04
       8.7316210E-04
       1.9575469E-04
       2.7068160E-02
       2.0282350E-02
       1.9056019E-02
       2.1626580E-02
       1.9985227E-02
       2.0659777E-02
       2.1797524E-02
       2.5787638E-02
       2.4237597E-02
       2.5032827E-02
       2.5991381E-02
       2.4387611E-02
       2.5124997E-02
       2.3307682E-02
       2.5259957E-02
       2.6089954E-02
       2.5436717E-02
       2.6894217E-02
       2.7615884E-02
       2.6792561E-02
       2.5672145E-02
       2.3939492E-02
       2.4836007E-02
       2.3888079E-02
       2.4613553E-02
       2.5554584E-02
       2.4772528E-02
       2.3662919E-02
       2.4638229E-02
       2.4066864E-02
       2.4445122E-02
       2.2240718E-02
       2.4458633E-02
       2.2369118E-02
       2.5744509E-02
       2.3479565E-02
       2.5411097E-02
       2.6390298E-02
       2.2803645E-02
       2.3242820E-02
       2.4358802E-02
       2.6392033E-02
       2.7358645E-02
       2.6673200E-02
       2.5714429E-02
       2.7957440E-02
       2.6365484E-02
       2.6868377E-02
       2.6355149E-02
       2.5289597E-02
       2.7261055E-02
       2.7120384E-02
       2.8360068E-02
       2.7182895E-02
       2.7799424E-02
       2.9233507E-02
       2.8520037E-02
       2.9563087E-02
       1.1473292E-02
       1.4205903E-02
       1.6285661E-02
       1.7328573E-02
       1.6473482E-02
       1.3974215E-02
       5.6779602E-03
       1.3799387E-03
       5.9129713E-03
       2.7161752E-03
       1.7300497E-02
       2.0808696E-02
       1.3761778E-02
       1.2279654E-02
       1.9006549E-02
       1.9286565E-02
       1.7690356E-02
       1.5438204E-02
       1.5952960E-02
       1.6970886E-02
       1.6975239E-02
       1.8520201E-02
       1.3359945E-02
       1.1967883E-02
       1.4202885E-02
       1.3993316E-02
       1.1343927E-02
       1.2628570E-02
       1.3895596E-02
       7.9436838E-03
       7.6204789E-03
       1.0517171E-02
       7.6604158E-03
       9.5845452E-03
       9.6335159E-03
       1.5220412E-02
       7.4766628E-03
       9.9420906E-03
       5.2265895E-03
       2.7309511E-03
       2.8672129E-03
       1.7311322E-03
       2.1087679E-02
       1.9364359E-02
       1.8954125E-02
       6.3858859E-03
       7.4893758E-03
       8.0553844E-03
       5.6892987E-03
       5.9683774E-03
       4.3125628E-03
       2.7777550E-02
       2.6946377E-02
       2.8723534E-02
       2.6912106E-02
       2.8908761E-02
       2.5142155E-02
       3.0097204E-02
       2.4718653E-02
       3.1194202E-02
       2.9873544E-02
       2.6853103E-02
       2.8102358E-02
       1.6844619E-02
       3.0678085E-02
       2.1831190E-02
       2.2098052E-02
       9.7959605E-03
       2.0668040E-02
       3.1899619E-02
       1.3918163E-02
       1.1222732E-02
       1.4270191E-02
       1.4025502E-02
       3.0346651E-02
       3.1795532E-02
       2.4140293E-02
       2.2776023E-02
       3.1518708E-02
       3.3552042E-02
       3.3684361E-02
       3.1400559E-02
       3.3514699E-02
       3.5136622E-02
       3.4759751E-02
       3.7256428E-02
       3.6249927E-02
       3.7885493E-02
       3.7355482E-02
       3.7742451E-02
       3.7224485E-02
       3.7813319E-02
       3.8676803E-02
       3.8230834E-02
       3.8293645E-02
       3.8263344E-02
       3.5658632E-02
       3.6375221E-02
       3.5080782E-02
       3.6329740E-02
       3.8366202E-02
       3.8511321E-02
       3.7940602E-02
       3.7745006E-02
       3.8015709E-02
       3.8988993E-02
       3.9844351E-02
       3.5824342E-03
       4.6535399E-04
       1.1021730E-03
       2.6755306E-04
       2.2332224E-02
       2.3161813E-02
       2.0715030E-02
       2.1709770E-02
       2.2541908E-02
       2.6994736E-02
       2.8597602E-02
       2.8270904E-02
       2.3042074E-02
       2.1975208E-02
       2.0785595E-02
       2.6220504E-02
       2.5531268E-02
       2.2573752E-02
       2.8300220E-02
       3.0370653E-02
       2.1913236E-03
       1.0718629E-03
       3.3934988E-03
       1.4414193E-03
       2.0173438E-03
       5.5427691E-03
       4.3563938E-04
       1.8885568E-03
       1.8510460E-04
       3.8030484E-04
       3.9843457E-04
       6.2684862E-04
       3.3179562E-04
       8.8507035E-04
       1.8826461E-04
       8.4341426E-03
       1.0199364E-02
       2.9177602E-03
       4.3752009E-03
       1.9373034E-02
       1.9752794E-02
       2.1328317E-02
       2.1233433E-02
       2.2229251E-02
       2.2992487E-02
       2.3524663E-02
       1.2074212E-02
       1.1328570E-02
       1.5467994E-02
       1.6234236E-02
       6.0673052E-03
       1.3573700E-02
       1.4648509E-02
       3.6892365E-03
       1.3738622E-02
       1.6201284E-02
       1.7705999E-02
       1.7518651E-02
       1.8883192E-02
       1.7318886E-02
       8.7539477E-04
       1.9061171E-02
       1.5560488E-02
       1.8750908E-02
       1.4645725E-02
       1.4745605E-02
       1.4269387E-02
       7.6238421E-03
       1.1488637E-02
       9.3583590E-03
       1.0444588E-02
       9.1403616E-03
       4.2046802E-03
       1.6199304E-03
       1.7996256E-02
       1.7256830E-02
       1.9436817E-02
       1.1800955E-02
       1.1968905E-02
       1.0387720E-02
       1.4171923E-02
       1.2712997E-02
       1.1474603E-02
       1.6134526E-02
       5.8939351E-03
       1.7320773E-03
       1.1806614E-03
       2.2179451E-02
       1.7492428E-02
       1.1812577E-02
       1.3964870E-02
       1.1167726E-02
       1.6294334E-02
       1.8720481E-02
       1.7520914E-02
       3.2702733E-02
       3.4506313E-02
       3.4569631E-02
       3.4840177E-02
       3.4749834E-02
       3.5201242E-02
       3.4206612E-02
       3.4105407E-02
       3.4719987E-02
       3.4123049E-02
       3.7286205E-02
       3.7051907E-02
       4.1180029E-02
       3.6381453E-02
       3.5521977E-02
       3.9112893E-02
       3.8522375E-02
       3.9199880E-02
       3.8494715E-02
       3.7382583E-02
       4.0048512E-02
       3.2734467E-02
       3.9754650E-02
       4.0669858E-02
       3.5600579E-02
       3.2334764E-02
       4.0687813E-02
       4.0412810E-02
       3.8928170E-02
       3.9209386E-02
       3.9360939E-02
       3.2650290E-02
       4.0072171E-02
       3.5995478E-02
       3.9718067E-02
       3.4618359E-02
       4.0365611E-02
       3.9593521E-02
       4.0039348E-02
       3.9783747E-02
       4.0189642E-02
       3.8999299E-02
       4.0649662E-02
       3.7268556E-02
       4.0417585E-02
       3.6840930E-02
       3.6286853E-02
       4.0246721E-02
       4.0671005E-02
       3.7551822E-02
       3.6080374E-02
       1.6770049E-02
       4.1001498E-02
       1.4259439E-02
       4.1321073E-02
       3.7639047E-02
       4.1148880E-02
       3.4500371E-02
       3.3381539E-02
       4.1199943E-02
       4.1545770E-02
       4.1526199E-02
       4.2015367E-02
       4.0963540E-02
       4.0881012E-02
       3.6788680E-02
       3.5415550E-02
       3.6568985E-02
       3.4762128E-02
       3.4116284E-02
       3.9565429E-02
       3.5359034E-02
       3.6609342E-02
       3.3801122E-02
       3.4814459E-02
       3.5624624E-02
       4.2569104E-02
       3.7931850E-02
       4.0214423E-02
       3.5632094E-02
       3.9977651E-02
       3.6020903E-02
       3.5412607E-02
       3.4431572E-02
       3.3703286E-02
       3.5034080E-02
       3.5608037E-02
       3.5661915E-02
       3.5363705E-02
       3.4952202E-02
       3.5385484E-02
       3.4425031E-02
       3.5355555E-02
       3.3687223E-02
       3.3499519E-02
       3.4114317E-02
       3.3388760E-02
       3.4179900E-02
       3.4789399E-02
       3.4383784E-02
       3.3657885E-02
       3.2918808E-02
       3.2681847E-02
       3.2495880E-02
       3.1426269E-02
       3.3304999E-02
       3.3530150E-02
       3.6592448E-02
       3.8323503E-02
       3.7573913E-02
       3.7875999E-02
       3.8761476E-02
       3.9569328E-02
       3.9357050E-02
       3.9572920E-02
       3.9380418E-02
       3.9025114E-02
       3.9674392E-02
       3.9281189E-02
       4.0103622E-02
       3.9299080E-02
       4.0018443E-02
       3.9772554E-02
       4.0348138E-02
       3.9559772E-02
       3.9592389E-02
       3.9574230E-02
       3.8866366E-02
       3.9899728E-02
       3.9266675E-02
       3.9023312E-02
       3.9753201E-02
       3.9805296E-02