# vtk DataFile Version 3.0
# Solution du M1 TR
ASCII
DATASET UNSTRUCTURED_GRID
POINTS   3280  float
0.0000000E+00  0.0000000E+00  0.2150922E-01
0.2000000E+01  0.0000000E+00  0.1960158E+01
0.2000000E+01  0.1000000E+01  0.1960225E+01
0.0000000E+00  0.1000000E+01  0.2160558E-01
0.1000000E+01  0.0000000E+00  0.9929389E+00
0.1000000E+01  0.1000000E+01  0.9926254E+00
0.1500000E+01  0.5000000E+00  0.1495735E+01
0.1500000E+01  0.0000000E+00  0.1473886E+01
0.1723284E+01  0.3570951E+00  0.1706774E+01
0.1500000E+01  0.2500000E+00  0.1494241E+01
0.1515103E+01  0.2763186E+00  0.1509141E+01
0.1594866E+01  0.2826386E+00  0.1585272E+01
0.1562500E+01  0.1875000E+00  0.1552855E+01
0.1534357E+01  0.1819434E+00  0.1525422E+01
0.1561083E+01  0.3343258E+00  0.1553436E+01
0.1750000E+01  0.0000000E+00  0.1715700E+01
0.1503267E+01  0.1622339E+00  0.1494774E+01
0.1514910E+01  0.2261192E+00  0.1508130E+01
0.1610795E+01  0.1290247E+00  0.1594698E+01
0.1539062E+01  0.1536458E+00  0.1528261E+01
0.1510772E+01  0.1982718E+00  0.1503351E+01
0.1541862E+01  0.2179813E+00  0.1533783E+01
0.1475030E+01  0.2178147E+00  0.1469823E+01
0.1539206E+01  0.2578835E+00  0.1531862E+01
0.1521085E+01  0.2465697E+00  0.1514309E+01
0.1496499E+01  0.2146241E+00  0.1490188E+01
0.1481433E+01  0.1870688E+00  0.1474716E+01
0.1586261E+01  0.1960616E+00  0.1575491E+01
0.1460896E+01  0.2899333E+00  0.1457470E+01
0.1542195E+01  0.2867649E+00  0.1535042E+01
0.1486080E+01  0.2754813E+00  0.1481347E+01
0.1536278E+01  0.3247610E+00  0.1529807E+01
0.1510131E+01  0.3295675E+00  0.1504938E+01
0.1455545E+01  0.2514402E+00  0.1451851E+01
0.1610995E+01  0.1909452E+00  0.1599263E+01
0.1564462E+01  0.2395252E+00  0.1555795E+01
0.1571524E+01  0.3026484E+00  0.1563117E+01
0.1613657E+01  0.2555806E+00  0.1603043E+01
0.1633998E+01  0.2714643E+00  0.1622370E+01
0.1534973E+01  0.3650914E+00  0.1528456E+01
0.1583157E+01  0.2286349E+00  0.1573312E+01
0.1586501E+01  0.1581416E+00  0.1574178E+01
0.1651985E+01  0.2274641E+00  0.1639209E+01
0.1619170E+01  0.2936434E+00  0.1608359E+01
0.1678889E+01  0.2641389E+00  0.1664937E+01
0.1642286E+01  0.2930521E+00  0.1630243E+01
0.1526415E+01  0.3446283E+00  0.1520383E+01
0.1662420E+01  0.3044259E+00  0.1649395E+01
0.1636786E+01  0.2469276E+00  0.1624989E+01
0.1588953E+01  0.3366240E+00  0.1579946E+01
0.1616427E+01  0.3314099E+00  0.1605982E+01
0.1598305E+01  0.3102698E+00  0.1588632E+01
0.1655410E+01  0.2614708E+00  0.1642639E+01
0.1487553E+01  0.3072167E+00  0.1483125E+01
0.1520126E+01  0.3036443E+00  0.1514219E+01
0.1477894E+01  0.2544664E+00  0.1473348E+01
0.1567847E+01  0.2133479E+00  0.1558351E+01
0.1663947E+01  0.3299725E+00  0.1651081E+01
0.1567022E+01  0.2696000E+00  0.1558666E+01
0.1678598E+01  0.3509559E+00  0.1664768E+01
0.1611933E+01  0.3827205E+00  0.1601606E+01
0.1640491E+01  0.3197373E+00  0.1628767E+01
0.1588015E+01  0.2526666E+00  0.1578481E+01
0.1708471E+01  0.3144917E+00  0.1692862E+01
0.1606944E+01  0.3564315E+00  0.1596953E+01
0.1604614E+01  0.2314093E+00  0.1593938E+01
0.1643491E+01  0.3631133E+00  0.1631618E+01
0.2000000E+01  0.5000000E+00  0.1960449E+01
0.1494727E+01  0.3621796E+00  0.1490123E+01
0.1701807E+01  0.3477237E+00  0.1686529E+01
0.1572156E+01  0.3701847E+00  0.1563961E+01
0.1688392E+01  0.3285111E+00  0.1674093E+01
0.1695932E+01  0.3904821E+00  0.1681011E+01
0.1636337E+01  0.3418163E+00  0.1624956E+01
0.1505941E+01  0.9448485E-01  0.1486746E+01
0.1423727E+01  0.1910920E+00  0.1419448E+01
0.1481447E+01  0.3359634E+00  0.1477550E+01
0.1441613E+01  0.3726133E+00  0.1439613E+01
0.1466699E+01  0.3599060E+00  0.1463503E+01
0.1476682E+01  0.4107296E+00  0.1473127E+01
0.1434448E+01  0.3273535E+00  0.1432676E+01
0.1464523E+01  0.3867258E+00  0.1461575E+01
0.1456903E+01  0.3373583E+00  0.1454200E+01
0.1454188E+01  0.3132491E+00  0.1451304E+01
0.1424069E+01  0.2919612E+00  0.1422182E+01
0.1490969E+01  0.3884111E+00  0.1486711E+01
0.1428051E+01  0.4202828E+00  0.1426890E+01
0.1513790E+01  0.3782958E+00  0.1508329E+01
0.1547789E+01  0.4092466E+00  0.1540866E+01
0.1535154E+01  0.3889763E+00  0.1528719E+01
0.1512699E+01  0.4170463E+00  0.1507536E+01
0.1441554E+01  0.3983607E+00  0.1439720E+01
0.1395941E+01  0.3853832E+00  0.1396260E+01
0.1420578E+01  0.3854393E+00  0.1419650E+01
0.1408336E+01  0.3518173E+00  0.1407844E+01
0.1549967E+01  0.3074339E+00  0.1542728E+01
0.1651639E+01  0.4114272E+00  0.1639465E+01
0.1668616E+01  0.3788978E+00  0.1655341E+01
0.1674624E+01  0.4027285E+00  0.1661199E+01
0.1706988E+01  0.4343785E+00  0.1691809E+01
0.1673984E+01  0.4357547E+00  0.1660633E+01
0.1695270E+01  0.4139894E+00  0.1680707E+01
0.1737273E+01  0.4034108E+00  0.1719812E+01
0.1645630E+01  0.3875965E+00  0.1633771E+01
0.1625874E+01  0.4052508E+00  0.1615009E+01
0.1627808E+01  0.4540126E+00  0.1617229E+01
0.1587158E+01  0.4136289E+00  0.1578268E+01
0.1633718E+01  0.4293591E+00  0.1622725E+01
0.1651607E+01  0.4466828E+00  0.1639697E+01
0.1605650E+01  0.4356658E+00  0.1596017E+01
0.1682168E+01  0.4808869E+00  0.1668582E+01
0.1671711E+01  0.4594749E+00  0.1658836E+01
0.1698428E+01  0.4596870E+00  0.1684037E+01
0.1646221E+01  0.4851828E+00  0.1634671E+01
0.1607747E+01  0.4151289E+00  0.1597842E+01
0.1584205E+01  0.4841185E+00  0.1575733E+01
0.1747573E+01  0.4622079E+00  0.1729920E+01
0.1568396E+01  0.4481495E+00  0.1560564E+01
0.1601760E+01  0.4629165E+00  0.1592547E+01
0.1723356E+01  0.4540167E+00  0.1707305E+01
0.1732897E+01  0.4294241E+00  0.1715842E+01
0.1722218E+01  0.4972746E+00  0.1706488E+01
0.1715121E+01  0.4754441E+00  0.1699738E+01
0.1584567E+01  0.4345797E+00  0.1575995E+01
0.1563465E+01  0.4258523E+00  0.1555944E+01
0.1534166E+01  0.4440258E+00  0.1527977E+01
0.1615090E+01  0.4918227E+00  0.1605212E+01
0.1717469E+01  0.4134541E+00  0.1701439E+01
0.1718488E+01  0.3909170E+00  0.1702094E+01
0.1741353E+01  0.3769080E+00  0.1723491E+01
0.1781199E+01  0.4241746E+00  0.1760355E+01
0.2000000E+01  0.2500000E+00  0.1960328E+01
0.1756308E+01  0.4199875E+00  0.1737621E+01
0.1762447E+01  0.3937207E+00  0.1743134E+01
0.1765097E+01  0.4438197E+00  0.1745861E+01
0.1807974E+01  0.4625425E+00  0.1783692E+01
0.1789176E+01  0.4471344E+00  0.1767494E+01
0.1514158E+01  0.1287364E+00  0.1501957E+01
0.1777674E+01  0.4803377E+00  0.1757625E+01
0.1811145E+01  0.4395021E+00  0.1787343E+01
0.1850404E+01  0.4566449E+00  0.1820855E+01
0.1748483E+01  0.3522599E+00  0.1730080E+01
0.1731235E+01  0.3304535E+00  0.1714177E+01
0.1777870E+01  0.3654441E+00  0.1757447E+01
0.1748149E+01  0.2821176E+00  0.1729906E+01
0.1732875E+01  0.3039003E+00  0.1715695E+01
0.1708314E+01  0.2807181E+00  0.1692829E+01
0.1767650E+01  0.3193756E+00  0.1747991E+01
0.1372661E+01  0.1704076E+00  0.1369083E+01
0.1411157E+01  0.2494459E+00  0.1409381E+01
0.1448000E+01  0.2246098E+00  0.1444046E+01
0.1360382E+01  0.2278583E+00  0.1360208E+01
0.1433680E+01  0.2431125E+00  0.1430870E+01
0.1388814E+01  0.2314916E+00  0.1387507E+01
0.1314549E+01  0.2124991E+00  0.1316033E+01
0.1404157E+01  0.2007613E+00  0.1401394E+01
0.1415035E+01  0.1072182E+00  0.1403728E+01
0.1520299E+01  0.1091515E+00  0.1504780E+01
0.1459010E+01  0.1690672E+00  0.1452356E+01
0.1436337E+01  0.2690050E+00  0.1433713E+01
0.1443480E+01  0.1263360E+00  0.1434019E+01
0.1625000E+01  0.0000000E+00  0.1594525E+01
0.1414954E+01  0.2197329E+00  0.1412207E+01
0.1335299E+01  0.2266424E+00  0.1336126E+01
0.1396801E+01  0.1612344E+00  0.1391573E+01
0.1792033E+01  0.3934232E+00  0.1770355E+01
0.1541310E+01  0.1264947E+00  0.1527979E+01
0.1483859E+01  0.1256971E+00  0.1471862E+01
0.1500341E+01  0.1139400E+00  0.1486391E+01
0.1498380E+01  0.1421255E+00  0.1487719E+01
0.1478242E+01  0.1468909E+00  0.1469198E+01
0.1453147E+01  0.1972183E+00  0.1448092E+01
0.1348833E+01  0.2067866E+00  0.1348591E+01
0.1368157E+01  0.2800764E+00  0.1368638E+01
0.1250000E+01  0.0000000E+00  0.1232554E+01
0.1496272E+01  0.2780308E-01  0.1471272E+01
0.1430228E+01  0.1622338E+00  0.1423746E+01
0.1544491E+01  0.1012427E+00  0.1526470E+01
0.1505524E+01  0.5428530E-01  0.1482539E+01
0.1576405E+01  0.1180891E+00  0.1560191E+01
0.1526885E+01  0.8834234E-01  0.1506072E+01
0.1558557E+01  0.6358195E-01  0.1534918E+01
0.1372206E+01  0.9428859E-01  0.1359004E+01
0.1414069E+01  0.8636887E-01  0.1398749E+01
0.1351230E+01  0.1581055E+00  0.1347780E+01
0.1371634E+01  0.2528708E+00  0.1371620E+01
0.1392978E+01  0.2694234E+00  0.1392228E+01
0.1321668E+01  0.2603105E+00  0.1324023E+01
0.1392566E+01  0.3027057E+00  0.1392274E+01
0.1345601E+01  0.2495441E+00  0.1346631E+01
0.1349996E+01  0.1827855E+00  0.1348415E+01
0.1475238E+01  0.9618066E-01  0.1458341E+01
0.1487372E+01  0.4556180E+00  0.1483507E+01
0.1432024E+01  0.3509343E+00  0.1430375E+01
0.1619231E+01  0.5383449E+00  0.1609106E+01
0.1532505E+01  0.4233173E+00  0.1526385E+01
0.1547332E+01  0.4788657E+00  0.1540634E+01
0.1627786E+01  0.4750493E+00  0.1617075E+01
0.1750658E+01  0.4911384E+00  0.1732993E+01
0.1783313E+01  0.5336292E+00  0.1762340E+01
0.1744147E+01  0.5299352E+00  0.1726768E+01
0.1772978E+01  0.5077787E+00  0.1753156E+01
0.1739682E+01  0.5092411E+00  0.1722646E+01
0.1715917E+01  0.5251974E+00  0.1700535E+01
0.1809547E+01  0.4999146E+00  0.1784836E+01
0.1486188E+01  0.5335558E+00  0.1482231E+01
0.1695320E+01  0.5058771E+00  0.1681306E+01
0.1793562E+01  0.5145404E+00  0.1771088E+01
0.1827482E+01  0.5355643E+00  0.1800411E+01
0.1805457E+01  0.5332234E+00  0.1781565E+01
0.1812320E+01  0.5734372E+00  0.1788050E+01
0.1794794E+01  0.5557356E+00  0.1772633E+01
0.1637325E+01  0.5533192E+00  0.1626392E+01
0.1761146E+01  0.5591762E+00  0.1742438E+01
0.1789115E+01  0.5788851E+00  0.1767373E+01
0.1693317E+01  0.6123782E+00  0.1679410E+01
0.1522396E+01  0.5359490E+00  0.1516805E+01
0.1814654E+01  0.6254783E+00  0.1789668E+01
0.1726166E+01  0.5505978E+00  0.1710026E+01
0.1691322E+01  0.5307786E+00  0.1677652E+01
0.1516987E+01  0.5143680E+00  0.1511772E+01
0.1661909E+01  0.5147686E+00  0.1649665E+01
0.1761865E+01  0.6508066E+00  0.1742642E+01
0.1692174E+01  0.5698207E+00  0.1678468E+01
0.1780214E+01  0.6037461E+00  0.1759718E+01
[...]
POINT_DATA    3280
SCALARS hauteur float
LOOKUP_TABLE DEFAULT
       2.1509223E-02
       2.4810774E-05
       9.1993512E-05
       2.1605583E-02
       1.2872369E-02
       1.2558834E-02
       2.5635110E-02
       3.7862619E-03
       1.7841380E-02
       2.4141467E-02
       2.4239201E-02
       2.2197667E-02
       2.1501259E-02
       2.1650099E-02
       2.3470282E-02
       5.8376943E-04
       2.1471721E-02
       2.3417421E-02
       1.6010935E-02
       1.9877537E-02
       2.2694377E-02
       2.2656104E-02
       2.4195731E-02
       2.3338300E-02
       2.3543776E-02
       2.3519340E-02
       2.2813506E-02
       2.0849296E-02
       2.5694217E-02
       2.3588048E-02
       2.4889955E-02
       2.4152426E-02
       2.4909251E-02
       2.5320136E-02
       2.0381046E-02
       2.2517680E-02
       2.2919262E-02
       2.1551264E-02
       2.0943291E-02
       2.4080303E-02
       2.1712749E-02
       1.9300974E-02
       2.0153975E-02
       2.1465209E-02
       1.9514230E-02
       2.0692927E-02
       2.4395141E-02
       2.0112719E-02
       2.0828994E-02
       2.2666264E-02
       2.1775786E-02
       2.2186831E-02
       2.0226708E-02
       2.5224070E-02
       2.4393392E-02
       2.4913752E-02
       2.1756743E-02
       2.0301826E-02
       2.2879206E-02
       1.9629669E-02
       2.1804594E-02
       2.0976448E-02
       2.2120710E-02
       1.8446571E-02
       2.2040690E-02
       2.1308851E-02
       2.0887909E-02
       3.1605391E-04
       2.5190516E-02
       1.8645158E-02
       2.3143745E-02
       1.9356455E-02
       1.8884443E-02
       2.1236306E-02
       1.0823833E-02
       2.4100517E-02
       2.5633023E-02
       2.6735940E-02
       2.6040522E-02
       2.5879832E-02
       2.6821866E-02
       2.6245268E-02
       2.6338114E-02
       2.6102794E-02
       2.6499243E-02
       2.5462732E-02
       2.7305356E-02
       2.4714616E-02
       2.3929707E-02
       2.4165424E-02
       2.4990845E-02
       2.6900393E-02
       2.8145052E-02
       2.7389231E-02
       2.7580901E-02
       2.3657658E-02
       2.0748548E-02
       1.9986168E-02
       1.9955409E-02
       1.8847561E-02
       2.0017017E-02
       1.9229888E-02
       1.7168941E-02
       2.0944327E-02
       2.1544200E-02
       2.1869661E-02
       2.2747482E-02
       2.1572934E-02
       2.1011596E-02
       2.2372979E-02
       1.9945072E-02
       2.0447067E-02
       1.9465069E-02
       2.1264897E-02
       2.2142445E-02
       2.3106735E-02
       1.7182599E-02
       2.3431263E-02
       2.2715374E-02
       1.8301960E-02
       1.7487716E-02
       1.8600034E-02
       1.8805694E-02
       2.3013191E-02
       2.3644566E-02
       2.4392882E-02
       2.2316824E-02
       1.8205389E-02
       1.7860506E-02
       1.6848849E-02
       1.4660820E-02
       1.9450404E-04
       1.6321975E-02
       1.5818062E-02
       1.5948603E-02
       1.1757063E-02
       1.3983108E-02
       1.7981146E-02
       1.5385942E-02
       1.2300209E-02
       7.3359909E-03
       1.6450496E-02
       1.7451622E-02
       1.5016490E-02
       1.6604267E-02
       1.7362004E-02
       1.8567533E-02
       1.5576331E-02
       2.3783892E-02
       2.6353741E-02
       2.4909043E-02
       2.6942744E-02
       2.5767982E-02
       2.6376610E-02
       2.7687673E-02
       2.5226042E-02
       1.6898836E-02
       1.4785883E-02
       2.2429712E-02
       2.6007269E-02
       1.9312244E-02
       1.9165341E-03
       2.5458571E-02
       2.7443642E-02
       2.2614600E-02
       1.4044149E-02
       1.7392391E-02
       1.7580801E-02
       1.5957329E-02
       1.9206918E-02
       2.0422020E-02
       2.3910993E-02
       2.6644603E-02
       2.7753250E-02
       7.4707594E-03
       4.8259065E-03
       2.2026825E-02
       1.2765631E-02
       7.0255225E-03
       1.5209560E-02
       9.6229663E-03
       7.4287501E-03
       1.4150449E-02
       1.2867325E-02
       2.3484963E-02
       2.7327269E-02
       2.7017302E-02
       2.8700706E-02
       2.7466453E-02
       2.7851511E-02
       2.5328738E-02
       1.2509432E-02
       2.5783482E-02
       2.6895779E-02
       2.2152185E-02
       2.4427905E-02
       2.4145060E-02
       2.1736454E-02
       1.7231449E-02
       1.4575397E-02
       1.7387879E-02
       1.5520214E-02
       1.7641662E-02
       1.8822466E-02
       1.1359737E-02
       2.5668145E-02
       1.9778907E-02
       1.3277558E-02
       9.3572618E-03
       1.2096699E-02
       1.1855900E-02
       1.3615957E-02
       2.1704308E-02
       1.6397301E-02
       1.3921559E-02
       1.9847363E-02
       2.4755010E-02
       1.1187098E-02
       1.8268007E-02
       2.0044223E-02
       2.5023778E-02
       2.0883286E-02
       1.5897105E-02
       2.0024791E-02
       1.4989699E-02
       2.3616129E-02
       2.0794374E-02
       1.7019515E-02
       2.3120159E-02
       1.9788127E-02
       1.7756732E-02
       1.7073403E-02
       1.8131141E-02
       1.7684756E-02
       9.6957669E-03
       1.1008542E-02
       2.7069673E-04
       1.5236611E-02
       6.2467473E-03
       1.4239393E-02
       1.6200320E-02
       1.9325701E-02
       1.7553544E-02
       1.2812678E-02
       9.5918619E-03
       9.8045835E-03
       1.1817461E-02
       1.2996544E-02
       1.3079543E-02
       1.5023288E-02
       1.9845565E-02
       2.5738360E-02
       1.7056317E-02
       1.8409573E-02
       2.0351488E-02
       2.1142638E-02
       7.7368411E-03
       1.0275124E-02
       7.0805206E-03
       3.1472516E-03
       3.4287977E-03
       4.3729884E-03
       1.1965688E-02
       1.2446887E-02
       4.2565799E-03
       1.6721769E-02
       6.9411046E-03
       1.5441519E-02
       5.1109878E-03
       1.3615555E-03
       1.2223771E-02
       1.8905496E-02
       1.7776507E-02
       1.9212409E-02
       8.8351827E-03
       1.7198801E-02
       2.1367780E-02
       2.0546979E-02
       2.5088070E-02
       2.3605444E-02
       2.0910899E-02
       2.4207564E-02
       1.2074009E-02
       5.5600949E-03
       2.0812193E-02
       9.0841533E-03
       1.9925016E-02
       6.7742115E-03
       2.6896971E-02
       2.7175306E-02
       2.7920008E-02
       2.8407576E-02
       2.8743771E-02
       2.5587493E-02
       2.4985211E-02
       2.6459234E-02
       2.4682116E-02
       2.4794787E-02
       2.2851779E-02
       2.4200293E-02
       2.1514030E-02
       2.4012408E-02
       2.3541369E-02
       1.3090792E-02
       1.0000458E-02
       8.2514781E-03
       1.6148195E-02
       2.0699046E-02
       8.5659661E-03
       1.2387862E-02
       2.1669652E-02
       2.2974202E-02
       1.0781735E-02
       1.8912415E-02
       1.1916579E-02
       1.8271904E-02
       1.5850398E-02
       1.6848747E-02
       1.7371923E-02
       1.2114895E-02
       6.5715145E-03
       1.7464810E-04
       1.3638547E-02
       3.7197079E-03
       1.5692883E-02
       1.4089912E-02
       2.0718877E-02
       4.8606202E-04
       9.4198253E-03
       1.5246033E-02
       1.3738677E-02
       1.9350258E-02
       1.8892434E-02
       3.5175467E-03
       2.2397478E-02
       3.2866850E-03
       1.6731439E-02
       2.3783973E-02
       2.8347384E-03
       1.2308083E-03
       1.8836599E-02
       1.8276997E-02
       1.9964080E-02
       2.0152445E-02
       1.2439923E-02
       1.9731588E-02
       1.8521717E-02
       1.9657756E-02
       2.0760460E-02
       1.8424779E-02
       1.4871501E-02
       1.7085056E-02
       1.8435200E-02
       8.9810711E-04
       9.5657011E-03
       9.2385222E-03
       1.2141412E-02
       4.8237350E-03
       4.2100035E-03
       2.1751061E-03
       2.4380365E-03
       1.6977727E-03
       1.8674294E-02
       1.9772094E-02
       1.5742004E-02
       1.3032292E-02
       1.6657860E-02
       1.0544357E-02
       4.7140275E-03
       9.0403719E-03
       5.0890750E-03
       4.3129835E-03
       3.4895781E-03
       5.0240806E-03
       6.3189619E-03
       2.6438518E-02
       2.9693423E-02
       2.8014613E-02
       2.8682198E-02
       2.9707754E-02
       2.8279043E-02
       2.9252620E-02
       3.0509423E-02
       3.0044775E-02
       3.1319378E-02
       2.9607939E-02
       3.0770559E-02
       3.2199002E-02
       3.1378063E-02
       3.1276429E-02
       3.1256269E-02
       3.0243308E-02
       2.8705240E-02
       2.8118836E-02
       2.8386615E-02
       2.8129385E-02
       2.9159648E-02
       3.0159767E-02
       3.0076541E-02
       2.6610397E-02
       2.4050189E-02
       2.6682736E-02
       2.5268771E-02
       2.4117159E-02
       2.8603847E-02
       2.9837601E-02
       2.9486607E-02
       2.9059913E-02
       2.9009248E-02
       2.9639070E-02
       3.1040128E-02
       3.0480169E-02
       2.8696548E-02
       3.0236194E-02
       3.0773269E-02
       3.1267493E-02
       3.0515728E-02
       2.9206490E-02
       2.9482264E-02
       3.2753633E-02
       3.0443658E-02
       3.2705479E-02
       3.1915915E-02
       3.1981532E-02
       3.2161183E-02
       3.3656801E-02
       3.2895682E-02
       3.2873963E-02
       3.1689922E-02
       3.2536038E-02
       3.4062325E-02
       3.3222125E-02
       3.3833152E-02
       3.1888467E-02
       3.5508533E-02
       3.1564537E-02
       3.4517401E-02
       3.0221493E-02
       3.2942281E-02
       3.4689778E-02
       3.5596383E-02
       3.5489138E-02
       3.7146053E-02
       3.6410174E-02
       3.5989450E-02
       3.4371312E-02
       3.1071997E-02
       3.2248250E-02
       3.6283519E-02
       3.6263599E-02
       3.6624903E-02
       3.8111984E-02
       3.7584222E-02
       3.5427083E-02
       3.7942635E-02
       3.0522497E-02
       3.1469766E-02
       3.7116351E-02
       3.6779613E-02
       3.6675800E-02
       3.7527064E-02
       3.8128268E-02
       2.9479059E-02
       3.1531114E-02
       3.9241507E-02
       3.0740287E-02
       3.3019048E-02
       3.8481564E-02
       3.9196387E-02
       2.9337303E-02
       3.2438386E-02
       3.3382739E-02
       3.8563998E-02
       3.9752944E-02
       3.9415908E-02
       4.1093415E-02
       4.0702446E-02
       2.9993280E-02
       2.9381062E-02
       3.0240217E-02
       2.7949119E-02
       3.0375427E-02
       2.8686111E-02
       2.8922785E-02
       2.8434712E-02
       4.0336730E-02
       4.3018682E-02
       2.7981179E-02
       4.0096803E-02
       4.0788836E-02
       4.0977080E-02
       4.1936910E-02
       2.7241977E-02
       2.8236467E-02
       2.7675431E-02
       2.6745432E-02
       2.7305665E-02
       2.7267919E-02
       4.0356658E-02
       3.9215880E-02
       4.1446534E-02
       4.0571400E-02
       2.6723147E-02
       2.6170934E-02
       3.8430844E-02
       4.2866007E-02
       4.1826673E-02
       3.8787304E-02
       2.6279378E-02
       4.3478423E-02
       3.9439186E-02
       3.8202306E-02
       2.6922579E-02
       4.2208390E-02
       4.3245133E-02
       4.1573399E-02
       4.5073653E-02
       4.1238633E-02
       4.4596205E-02
       4.4085373E-02
       4.3919713E-02
       4.4224768E-02
       4.3648941E-02
       4.2485832E-02
       4.2063493E-02
       4.5730943E-02
       4.4866823E-02
       4.6345940E-02
       4.4791622E-02
       4.5321122E-02
       2.6550846E-02
       1.0909150E-02
       7.2480823E-03
       2.6336396E-03
       5.1071500E-03
       2.9487217E-03
       4.4317556E-03
       4.1177961E-03
       6.0117203E-03
       6.6947843E-03
       5.7244475E-03
       7.6378980E-03
       1.2975126E-04
       4.2502673E-04
       3.4517412E-03
       3.9724814E-03
       2.3428643E-03
       1.1217263E-03
       4.1976322E-03
       6.8226798E-04
       6.4167309E-04
       2.6025998E-03
       1.4463001E-03
       7.6832804E-04
       1.3739438E-03
       1.6228202E-04
       2.5476323E-02
       2.1109314E-02
       2.0381488E-02
       2.1858516E-02
       2.0860316E-02
       2.1274975E-02
       2.1924110E-02
       2.4437895E-02
       2.3344792E-02
       2.3937122E-02
       2.4532360E-02
       2.3456029E-02
       2.3908800E-02
       2.2803692E-02
       2.4015188E-02
       2.4681911E-02
       2.4373789E-02
       2.5290065E-02
       2.5892458E-02
       2.5319089E-02
       2.4451141E-02
       2.3319911E-02
       2.3905256E-02
       2.3331286E-02
       2.3838037E-02
       2.4553354E-02
       2.3978657E-02
       2.3149135E-02
       2.3877849E-02
       2.3465070E-02
       2.3643887E-02
       2.2198735E-02
       2.3707284E-02
       2.1988085E-02
       2.4735523E-02
       2.2918230E-02
       2.4458160E-02
       2.5206238E-02
       2.2131087E-02
       2.2608335E-02
       2.3506253E-02
       2.5140994E-02
       2.6064197E-02
       2.5472427E-02
       2.4700399E-02
       2.6463335E-02
       2.5247240E-02
       2.5678804E-02
       2.5229242E-02
       2.4297288E-02
       2.5923691E-02
       2.5741864E-02
       2.6632719E-02
       2.5711679E-02
       2.6240527E-02
       2.7537596E-02
       2.6862602E-02
       2.7721520E-02
       1.5730082E-02
       1.7686833E-02
       1.8930525E-02
       1.9504706E-02
       1.8833471E-02
       1.6618109E-02
       8.8921748E-03
       2.1844087E-03
       8.8128319E-03
       4.6572277E-03
       1.9262556E-02
       2.1288381E-02
       1.5946230E-02
       1.4759518E-02
       1.9360920E-02
       1.9406864E-02
       1.8360662E-02
       1.6572795E-02
       1.7159778E-02
       1.7634619E-02
       1.7316530E-02
       1.8495775E-02
       1.4294078E-02
       1.4437889E-02
       1.6177512E-02
       1.5768774E-02
       1.3273733E-02
       1.4613754E-02
       1.5308167E-02
       1.0984880E-02
       9.4632971E-03
       1.3109899E-02
       1.1265093E-02
       1.2805453E-02
       1.3160859E-02
       1.7075323E-02
       1.0879587E-02
       1.3280278E-02
       5.0790005E-03
       2.7674914E-03
       3.3545040E-03
       2.1547994E-03
       2.0672043E-02
       1.8409628E-02
       1.8065503E-02
       5.5400210E-03
       6.7123845E-03
       7.1671564E-03
       4.9357936E-03
       5.2994123E-03
       3.8926597E-03
       2.6625605E-02
       2.6238780E-02
       2.8393344E-02
       2.6412568E-02
       2.8326126E-02
       2.5018601E-02
       2.9751756E-02
       2.4326380E-02
       3.1104010E-02
       2.9802615E-02
       2.6566366E-02
       2.8188272E-02
       1.6657628E-02
       3.1114810E-02
       2.1345429E-02
       2.1813831E-02
       1.0146760E-02
       2.0600855E-02
       3.1697548E-02
       1.3881831E-02
       1.0347450E-02
       1.3895536E-02
       1.3490567E-02
       3.0509328E-02
       3.2124575E-02
       2.3240087E-02
       2.1851323E-02
       3.0027179E-02
       3.3071816E-02
       3.3630541E-02
       2.9806403E-02
       3.2503798E-02
       3.5042980E-02
       3.4565925E-02
       3.9782247E-02
       3.7379663E-02
       4.1909642E-02
       4.2536504E-02
       4.4247036E-02
       4.2879347E-02
       4.3781556E-02
       4.5903744E-02
       4.4980565E-02
       4.4638662E-02
       4.5722032E-02
       4.1667115E-02
       4.1719472E-02
       3.8594775E-02
       3.9897480E-02
       4.3069017E-02
       4.3452340E-02
       4.1735312E-02
       4.1117577E-02
       4.1957382E-02
       4.5879059E-02
       4.7881767E-02
       6.2398096E-03
       5.4531158E-04
       1.7591109E-03
       2.2096775E-04
       2.2217972E-02
       2.2673124E-02
       2.1254310E-02
       2.1870142E-02
       2.2344970E-02
       2.5361892E-02
       2.6736695E-02
       2.6463534E-02
       2.2690110E-02
       2.2018462E-02
       2.0908746E-02
       2.4936097E-02
       2.4497487E-02
       2.1710828E-02
       2.6518345E-02
       2.8488213E-02
       3.5233756E-03
       1.6801546E-03
       5.3206377E-03
       2.2616497E-03
       3.1990851E-03
       8.2269267E-03
       6.1681378E-04
       2.9847779E-03
       2.4648723E-04
       5.6473277E-04
       4.7462355E-04
       7.9536662E-04
       4.8334861E-04
       1.3783075E-03
       1.7751465E-04
       1.1692297E-02
       1.3285897E-02
       4.8630692E-03
       7.4262365E-03
       2.0387682E-02
       2.0558018E-02
       2.1617387E-02
       2.1435333E-02
       2.2232034E-02
       2.2715694E-02
       2.3069629E-02
       1.4445083E-02
       1.4067945E-02
       1.7269986E-02
       1.6998590E-02
       8.8036822E-03
       1.5056197E-02
       1.6072497E-02
       5.6859913E-03
       1.5697769E-02
       1.7232366E-02
       1.8381927E-02
       1.7744198E-02
       1.9461851E-02
       1.7774396E-02
       1.0696878E-03
       1.9264670E-02
       1.6072321E-02
       1.9167593E-02
       1.5453094E-02
       1.5133940E-02
       1.5373277E-02
       9.5946408E-03
       1.3147230E-02
       1.1808229E-02
       1.1863414E-02
       1.1438061E-02
       6.0763892E-03
       1.7904216E-03
       1.7850243E-02
       1.7314508E-02
       1.9316518E-02
       1.4558915E-02
       1.4872716E-02
       1.3798270E-02
       1.6343528E-02
       1.5462820E-02
       1.4590369E-02
       1.7682257E-02
       9.3041200E-03
       1.9994470E-03
       1.6442702E-03
       2.1499674E-02
       1.6906327E-02
       1.1030969E-02
       1.3295953E-02
       1.0543308E-02
       1.5523315E-02
       1.8005411E-02
       1.7118382E-02
       3.2742765E-02
       3.3945655E-02
       3.4032107E-02
       3.4580461E-02
       3.4340350E-02
       3.5150291E-02
       3.3611066E-02
       3.3566612E-02
       3.4612169E-02
       3.3696187E-02
       3.9918816E-02
       4.3199175E-02
       5.2496757E-02
       4.5445993E-02
       4.0888476E-02
       4.8347546E-02
       4.6755299E-02
       4.8116785E-02
       4.7111736E-02
       4.4600769E-02
       5.0257174E-02
       3.8417577E-02
       4.9289468E-02
       5.1415298E-02
       4.2141822E-02
       3.3675816E-02
       5.1237830E-02
       5.0437017E-02
       4.6820279E-02
       4.6964283E-02
       4.7776447E-02
       4.0220553E-02
       4.9124959E-02
       4.0585388E-02
       4.8273745E-02
       3.9999528E-02
       5.0783252E-02
       4.7556964E-02
       4.9589236E-02
       4.8780502E-02
       4.9655041E-02
       4.7352221E-02
       5.0654488E-02
       4.4915521E-02
       5.0074867E-02
       4.4561598E-02
       4.2198313E-02
       4.9390255E-02
       5.0872542E-02
       4.4392044E-02
       4.3260476E-02
       2.1554190E-02
       5.1936781E-02
       1.9546165E-02
       5.2621309E-02
       4.5926074E-02
       5.2073041E-02
       3.9295046E-02
       3.8199842E-02
       5.2255544E-02
       5.2899968E-02
       5.2900309E-02
       5.3921904E-02
       5.1743273E-02
       5.1420695E-02
       4.4989884E-02
       4.0048955E-02
       4.3644629E-02
       4.0694052E-02
       4.0270211E-02
       4.8557023E-02
       4.3111491E-02
       4.3164224E-02
       3.9318487E-02
       3.7256879E-02
       4.2997789E-02
       5.4802725E-02
       4.5821675E-02
       5.0254090E-02
       3.9024253E-02
       4.9970656E-02
       4.0044103E-02
       3.9460967E-02
       3.8172231E-02
       3.6478310E-02
       3.8011820E-02
       3.7721682E-02
       3.8569685E-02
       3.7694885E-02
       3.6603026E-02
       3.6978688E-02
       3.6316720E-02
       3.6627021E-02
       3.5689545E-02
       3.4527083E-02
       3.5455209E-02
       3.4869813E-02
       3.5115591E-02
       3.5957689E-02
       3.5066413E-02
       3.4045929E-02
       3.3276348E-02
       3.3337082E-02
       3.3502993E-02
       3.2431227E-02
       3.3325930E-02
       3.4191611E-02
       3.9881819E-02
       4.2881572E-02
       4.0654209E-02
       4.2068923E-02
       4.5654560E-02
       4.7035213E-02
       4.6352063E-02
       4.6981480E-02
       4.6374664E-02
       4.5327311E-02
       4.7337001E-02
       4.6060816E-02
       4.8874027E-02
       4.6329276E-02
       4.8533939E-02
       4.7761243E-02
       4.9611358E-02
       4.7070047E-02
       4.7713375E-02
       4.7346730E-02
       4.5814490E-02
       4.8444423E-02
       4.6650986E-02
       4.6948398E-02
       4.7710154E-02
       4.8003860E-02