# vtk DataFile Version 3.0
# Solution du M1 TR
ASCII
DATASET UNSTRUCTURED_GRID
POINTS   3280  float
0.0000000E+00  0.0000000E+00  0.2169322E-01
0.2000000E+01  0.0000000E+00  0.1960223E+01
0.2000000E+01  0.1000000E+01  0.1960373E+01
0.0000000E+00  0.1000000E+01  0.2171240E-01
0.1000000E+01  0.0000000E+00  0.9917410E+00
0.1000000E+01  0.1000000E+01  0.9918732E+00
0.1500000E+01  0.5000000E+00  0.1497226E+01
0.1500000E+01  0.0000000E+00  0.1474103E+01
0.1723284E+01  0.3570951E+00  0.1703640E+01
0.1500000E+01  0.2500000E+00  0.1495482E+01
0.1515103E+01  0.2763186E+00  0.1510258E+01
0.1594866E+01  0.2826386E+00  0.1585599E+01
0.1562500E+01  0.1875000E+00  0.1553679E+01
0.1534357E+01  0.1819434E+00  0.1526352E+01
0.1561083E+01  0.3343258E+00  0.1554065E+01
0.1750000E+01  0.0000000E+00  0.1715477E+01
0.1503267E+01  0.1622339E+00  0.1495741E+01
0.1514910E+01  0.2261192E+00  0.1509295E+01
0.1610795E+01  0.1290247E+00  0.1594253E+01
0.1539062E+01  0.1536458E+00  0.1528917E+01
0.1510772E+01  0.1982718E+00  0.1504448E+01
0.1541862E+01  0.2179813E+00  0.1534793E+01
0.1475030E+01  0.2178147E+00  0.1471111E+01
0.1539206E+01  0.2578835E+00  0.1532837E+01
0.1521085E+01  0.2465697E+00  0.1515425E+01
0.1496499E+01  0.2146241E+00  0.1491410E+01
0.1481433E+01  0.1870688E+00  0.1475866E+01
0.1586261E+01  0.1960616E+00  0.1575988E+01
0.1460896E+01  0.2899333E+00  0.1458759E+01
0.1542195E+01  0.2867649E+00  0.1535929E+01
0.1486080E+01  0.2754813E+00  0.1482589E+01
0.1536278E+01  0.3247610E+00  0.1530686E+01
0.1510131E+01  0.3295675E+00  0.1505974E+01
0.1455545E+01  0.2514402E+00  0.1453184E+01
0.1610995E+01  0.1909452E+00  0.1599387E+01
0.1564462E+01  0.2395252E+00  0.1556621E+01
0.1571524E+01  0.3026484E+00  0.1563661E+01
0.1613657E+01  0.2555806E+00  0.1603136E+01
0.1633998E+01  0.2714643E+00  0.1621975E+01
0.1534973E+01  0.3650914E+00  0.1529122E+01
0.1583157E+01  0.2286349E+00  0.1573912E+01
0.1586501E+01  0.1581416E+00  0.1574524E+01
0.1651985E+01  0.2274641E+00  0.1638576E+01
0.1619170E+01  0.2936434E+00  0.1608188E+01
0.1678889E+01  0.2641389E+00  0.1663250E+01
0.1642286E+01  0.2930521E+00  0.1629508E+01
0.1526415E+01  0.3446283E+00  0.1521226E+01
0.1662420E+01  0.3044259E+00  0.1648069E+01
0.1636786E+01  0.2469276E+00  0.1624707E+01
0.1588953E+01  0.3366240E+00  0.1580194E+01
0.1616427E+01  0.3314099E+00  0.1605784E+01
0.1598305E+01  0.3102698E+00  0.1588791E+01
0.1655410E+01  0.2614708E+00  0.1641666E+01
0.1487553E+01  0.3072167E+00  0.1484296E+01
0.1520126E+01  0.3036443E+00  0.1515233E+01
0.1477894E+01  0.2544664E+00  0.1474653E+01
0.1567847E+01  0.2133479E+00  0.1559136E+01
0.1663947E+01  0.3299725E+00  0.1649870E+01
0.1567022E+01  0.2696000E+00  0.1559375E+01
0.1678598E+01  0.3509559E+00  0.1663015E+01
0.1611933E+01  0.3827205E+00  0.1601054E+01
0.1640491E+01  0.3197373E+00  0.1628094E+01
0.1588015E+01  0.2526666E+00  0.1578983E+01
0.1708471E+01  0.3144917E+00  0.1690215E+01
0.1606944E+01  0.3564315E+00  0.1596713E+01
0.1604614E+01  0.2314093E+00  0.1594205E+01
0.1643491E+01  0.3631133E+00  0.1630650E+01
0.2000000E+01  0.5000000E+00  0.1960510E+01
0.1494727E+01  0.3621796E+00  0.1491168E+01
0.1701807E+01  0.3477237E+00  0.1684009E+01
0.1572156E+01  0.3701847E+00  0.1564243E+01
0.1688392E+01  0.3285111E+00  0.1672172E+01
0.1695932E+01  0.3904821E+00  0.1678570E+01
0.1636337E+01  0.3418163E+00  0.1624310E+01
0.1505941E+01  0.9448485E-01  0.1486838E+01
0.1423727E+01  0.1910920E+00  0.1420665E+01
0.1481447E+01  0.3359634E+00  0.1478713E+01
0.1441613E+01  0.3726133E+00  0.1440895E+01
0.1466699E+01  0.3599060E+00  0.1464695E+01
0.1476682E+01  0.4107296E+00  0.1474348E+01
0.1434448E+01  0.3273535E+00  0.1433969E+01
0.1464523E+01  0.3867258E+00  0.1462821E+01
0.1456903E+01  0.3373583E+00  0.1455444E+01
0.1454188E+01  0.3132491E+00  0.1452561E+01
0.1424069E+01  0.2919612E+00  0.1423495E+01
0.1490969E+01  0.3884111E+00  0.1487816E+01
0.1428051E+01  0.4202828E+00  0.1428306E+01
0.1513790E+01  0.3782958E+00  0.1509230E+01
0.1547789E+01  0.4092466E+00  0.1541443E+01
0.1535154E+01  0.3889763E+00  0.1529404E+01
0.1512699E+01  0.4170463E+00  0.1508545E+01
0.1441554E+01  0.3983607E+00  0.1441054E+01
0.1395941E+01  0.3853832E+00  0.1397614E+01
0.1420578E+01  0.3854393E+00  0.1421004E+01
0.1408336E+01  0.3518173E+00  0.1409168E+01
0.1549967E+01  0.3074339E+00  0.1543523E+01
0.1651639E+01  0.4114272E+00  0.1638081E+01
0.1668616E+01  0.3788978E+00  0.1653759E+01
0.1674624E+01  0.4027285E+00  0.1659379E+01
0.1706988E+01  0.4343785E+00  0.1688662E+01
0.1673984E+01  0.4357547E+00  0.1658472E+01
0.1695270E+01  0.4139894E+00  0.1678216E+01
0.1737273E+01  0.4034108E+00  0.1715849E+01
0.1645630E+01  0.3875965E+00  0.1632658E+01
0.1625874E+01  0.4052508E+00  0.1614219E+01
0.1627808E+01  0.4540126E+00  0.1616573E+01
0.1587158E+01  0.4136289E+00  0.1578303E+01
0.1633718E+01  0.4293591E+00  0.1621909E+01
0.1651607E+01  0.4466828E+00  0.1638289E+01
0.1605650E+01  0.4356658E+00  0.1595737E+01
0.1682168E+01  0.4808869E+00  0.1665459E+01
0.1671711E+01  0.4594749E+00  0.1656609E+01
0.1698428E+01  0.4596870E+00  0.1680958E+01
0.1646221E+01  0.4851828E+00  0.1633065E+01
0.1607747E+01  0.4151289E+00  0.1597469E+01
0.1584205E+01  0.4841185E+00  0.1575732E+01
0.1747573E+01  0.4622079E+00  0.1725010E+01
0.1568396E+01  0.4481495E+00  0.1560850E+01
0.1601760E+01  0.4629165E+00  0.1592368E+01
0.1723356E+01  0.4540167E+00  0.1703387E+01
0.1732897E+01  0.4294241E+00  0.1711659E+01
0.1722218E+01  0.4972746E+00  0.1701703E+01
0.1715121E+01  0.4754441E+00  0.1695579E+01
0.1584567E+01  0.4345797E+00  0.1576092E+01
0.1563465E+01  0.4258523E+00  0.1556399E+01
0.1534166E+01  0.4440258E+00  0.1528774E+01
0.1615090E+01  0.4918227E+00  0.1604553E+01
0.1717469E+01  0.4134541E+00  0.1698172E+01
0.1718488E+01  0.3909170E+00  0.1698805E+01
0.1741353E+01  0.3769080E+00  0.1719610E+01
0.1781199E+01  0.4241746E+00  0.1755174E+01
0.2000000E+01  0.2500000E+00  0.1960359E+01
0.1756308E+01  0.4199875E+00  0.1733019E+01
0.1762447E+01  0.3937207E+00  0.1738593E+01
0.1765097E+01  0.4438197E+00  0.1740624E+01
0.1807974E+01  0.4625425E+00  0.1777929E+01
0.1789176E+01  0.4471344E+00  0.1761682E+01
0.1514158E+01  0.1287364E+00  0.1502452E+01
0.1777674E+01  0.4803377E+00  0.1751825E+01
0.1811145E+01  0.4395021E+00  0.1781776E+01
0.1850404E+01  0.4566449E+00  0.1816869E+01
0.1748483E+01  0.3522599E+00  0.1726147E+01
0.1731235E+01  0.3304535E+00  0.1710803E+01
0.1777870E+01  0.3654441E+00  0.1752850E+01
0.1748149E+01  0.2821176E+00  0.1725918E+01
0.1732875E+01  0.3039003E+00  0.1712233E+01
0.1708314E+01  0.2807181E+00  0.1690316E+01
0.1767650E+01  0.3193756E+00  0.1743660E+01
0.1372661E+01  0.1704076E+00  0.1370156E+01
0.1411157E+01  0.2494459E+00  0.1410706E+01
0.1448000E+01  0.2246098E+00  0.1445360E+01
0.1360382E+01  0.2278583E+00  0.1361402E+01
0.1433680E+01  0.2431125E+00  0.1432206E+01
0.1388814E+01  0.2314916E+00  0.1388779E+01
0.1314549E+01  0.2124991E+00  0.1317025E+01
0.1404157E+01  0.2007613E+00  0.1402644E+01
0.1415035E+01  0.1072182E+00  0.1404541E+01
0.1520299E+01  0.1091515E+00  0.1504948E+01
0.1459010E+01  0.1690672E+00  0.1453461E+01
0.1436337E+01  0.2690050E+00  0.1435042E+01
0.1443480E+01  0.1263360E+00  0.1434906E+01
0.1625000E+01  0.0000000E+00  0.1594063E+01
0.1414954E+01  0.2197329E+00  0.1413505E+01
0.1335299E+01  0.2266424E+00  0.1337231E+01
0.1396801E+01  0.1612344E+00  0.1392625E+01
0.1792033E+01  0.3934232E+00  0.1765368E+01
0.1541310E+01  0.1264947E+00  0.1528308E+01
0.1483859E+01  0.1256971E+00  0.1472512E+01
0.1500341E+01  0.1139400E+00  0.1486797E+01
0.1498380E+01  0.1421255E+00  0.1488426E+01
0.1478242E+01  0.1468909E+00  0.1470105E+01
0.1453147E+01  0.1972183E+00  0.1449345E+01
0.1348833E+01  0.2067866E+00  0.1349724E+01
0.1368157E+01  0.2800764E+00  0.1369912E+01
0.1250000E+01  0.0000000E+00  0.1233437E+01
0.1496272E+01  0.2780308E-01  0.1471441E+01
0.1430228E+01  0.1622338E+00  0.1424789E+01
0.1544491E+01  0.1012427E+00  0.1526336E+01
0.1505524E+01  0.5428530E-01  0.1482557E+01
0.1576405E+01  0.1180891E+00  0.1560113E+01
0.1526885E+01  0.8834234E-01  0.1505887E+01
0.1558557E+01  0.6358195E-01  0.1534407E+01
0.1372206E+01  0.9428859E-01  0.1359836E+01
0.1414069E+01  0.8636887E-01  0.1399523E+01
0.1351230E+01  0.1581055E+00  0.1348766E+01
0.1371634E+01  0.2528708E+00  0.1372868E+01
0.1392978E+01  0.2694234E+00  0.1393545E+01
0.1321668E+01  0.2603105E+00  0.1325082E+01
0.1392566E+01  0.3027057E+00  0.1393594E+01
0.1345601E+01  0.2495441E+00  0.1347784E+01
0.1349996E+01  0.1827855E+00  0.1349488E+01
0.1475238E+01  0.9618066E-01  0.1458763E+01
0.1487372E+01  0.4556180E+00  0.1484863E+01
0.1432024E+01  0.3509343E+00  0.1431659E+01
0.1619231E+01  0.5383449E+00  0.1607933E+01
0.1532505E+01  0.4233173E+00  0.1527194E+01
0.1547332E+01  0.4788657E+00  0.1541399E+01
0.1627786E+01  0.4750493E+00  0.1616161E+01
0.1750658E+01  0.4911384E+00  0.1727596E+01
0.1783313E+01  0.5336292E+00  0.1755735E+01
0.1744147E+01  0.5299352E+00  0.1720711E+01
0.1772978E+01  0.5077787E+00  0.1746837E+01
0.1739682E+01  0.5092411E+00  0.1717011E+01
0.1715917E+01  0.5251974E+00  0.1695575E+01
0.1809547E+01  0.4999146E+00  0.1778995E+01
0.1486188E+01  0.5335558E+00  0.1483849E+01
0.1695320E+01  0.5058771E+00  0.1677504E+01
0.1793562E+01  0.5145404E+00  0.1764705E+01
0.1827482E+01  0.5355643E+00  0.1795369E+01
0.1805457E+01  0.5332234E+00  0.1775416E+01
0.1812320E+01  0.5734372E+00  0.1782001E+01
0.1794794E+01  0.5557356E+00  0.1766186E+01
0.1637325E+01  0.5533192E+00  0.1624483E+01
0.1761146E+01  0.5591762E+00  0.1736002E+01
0.1789115E+01  0.5788851E+00  0.1760873E+01
0.1693317E+01  0.6123782E+00  0.1675967E+01
0.1522396E+01  0.5359490E+00  0.1518028E+01
0.1814654E+01  0.6254783E+00  0.1784103E+01
0.1726166E+01  0.5505978E+00  0.1704399E+01
0.1691322E+01  0.5307786E+00  0.1673847E+01
0.1516987E+01  0.5143680E+00  0.1513097E+01
0.1661909E+01  0.5147686E+00  0.1646865E+01
0.1761865E+01  0.6508066E+00  0.1736933E+01
0.1692174E+01  0.5698207E+00  0.1674689E+01
0.1780214E+01  0.6037461E+00  0.1753322E+01
[...]
POINT_DATA    3280
SCALARS hauteur float
LOOKUP_TABLE DEFAULT
       2.1693215E-02
       8.9935147E-05
       2.4023005E-04
       2.1712399E-02
       1.1674449E-02
       1.1806635E-02
       2.7125715E-02
       4.0031764E-03
       1.4706808E-02
       2.5382324E-02
       2.5355891E-02
       2.2523946E-02
       2.2325342E-02
       2.2579280E-02
       2.4099114E-02
       3.6084618E-04
       2.2438788E-02
       2.4582390E-02
       1.5566387E-02
       2.0533512E-02
       2.3791140E-02
       2.3665527E-02
       2.5483456E-02
       2.4312554E-02
       2.4660377E-02
       2.4741446E-02
       2.3963615E-02
       2.1346488E-02
       2.6983496E-02
       2.4475320E-02
       2.6131761E-02
       2.5031820E-02
       2.5945004E-02
       2.6652883E-02
       2.0504746E-02
       2.3343735E-02
       2.3463477E-02
       2.1644018E-02
       2.0548192E-02
       2.4745396E-02
       2.2312182E-02
       1.9647126E-02
       1.9520667E-02
       2.1294330E-02
       1.7827416E-02
       1.9958433E-02
       2.5238566E-02
       1.8787004E-02
       2.0547550E-02
       2.2914059E-02
       2.1578240E-02
       2.2345992E-02
       1.9253426E-02
       2.6395059E-02
       2.5407868E-02
       2.6219107E-02
       2.2541275E-02
       1.9091329E-02
       2.3588443E-02
       1.7876760E-02
       2.1251920E-02
       2.0303598E-02
       2.2622617E-02
       1.5800257E-02
       2.1801027E-02
       2.1576137E-02
       1.9919635E-02
       3.7721727E-04
       2.6235770E-02
       1.6124494E-02
       2.3426131E-02
       1.7435755E-02
       1.6442868E-02
       2.0590674E-02
       1.0916022E-02
       2.5316959E-02
       2.6796410E-02
       2.8018500E-02
       2.7233012E-02
       2.7100894E-02
       2.8114781E-02
       2.7490487E-02
       2.7581457E-02
       2.7359898E-02
       2.7812018E-02
       2.6567495E-02
       2.8721086E-02
       2.5615831E-02
       2.4506700E-02
       2.4850478E-02
       2.5999343E-02
       2.8234306E-02
       2.9498687E-02
       2.8743292E-02
       2.8905086E-02
       2.4452310E-02
       1.9364930E-02
       1.8404446E-02
       1.8135793E-02
       1.5700282E-02
       1.7855869E-02
       1.6739310E-02
       1.3206188E-02
       1.9830943E-02
       2.0754001E-02
       2.1213493E-02
       2.2782484E-02
       2.0756659E-02
       1.9603613E-02
       2.2093247E-02
       1.6821809E-02
       1.8220479E-02
       1.6385697E-02
       1.9658902E-02
       2.1769762E-02
       2.3105939E-02
       1.2272308E-02
       2.3717748E-02
       2.2535809E-02
       1.4383495E-02
       1.3304078E-02
       1.3814352E-02
       1.4646903E-02
       2.3110530E-02
       2.4098789E-02
       2.5189456E-02
       2.1657019E-02
       1.4937959E-02
       1.4571954E-02
       1.2968010E-02
       9.4803372E-03
       2.2598216E-04
       1.1719754E-02
       1.1277624E-02
       1.0711693E-02
       5.9944374E-03
       8.1711849E-03
       1.8475772E-02
       9.5865650E-03
       6.7326538E-03
       3.3498375E-03
       1.2517520E-02
       1.4077296E-02
       1.0418596E-02
       1.2615620E-02
       1.3899806E-02
       1.6054492E-02
       1.1245789E-02
       2.4856966E-02
       2.7678247E-02
       2.6223657E-02
       2.8137296E-02
       2.7104408E-02
       2.7648580E-02
       2.8679501E-02
       2.6476727E-02
       1.7712704E-02
       1.4953036E-02
       2.3534706E-02
       2.7336775E-02
       2.0200045E-02
       1.4546758E-03
       2.6755811E-02
       2.8549051E-02
       2.3666953E-02
       9.0564234E-03
       1.7721534E-02
       1.8231402E-02
       1.6363778E-02
       1.9914169E-02
       2.1329574E-02
       2.5163554E-02
       2.7778366E-02
       2.9026701E-02
       8.3541200E-03
       4.9952947E-03
       2.3070423E-02
       1.2631837E-02
       7.0432225E-03
       1.5131436E-02
       9.4383624E-03
       6.9176516E-03
       1.4983132E-02
       1.3641643E-02
       2.4470616E-02
       2.8575563E-02
       2.8334048E-02
       2.9759318E-02
       2.8786136E-02
       2.9004584E-02
       2.6401517E-02
       1.2932252E-02
       2.7139234E-02
       2.8179496E-02
       2.0979163E-02
       2.5237635E-02
       2.4910713E-02
       2.0821792E-02
       1.1834905E-02
       7.9702069E-03
       1.1330755E-02
       9.2007402E-03
       1.2006614E-02
       1.3862756E-02
       5.5184587E-03
       2.7285992E-02
       1.5976755E-02
       6.8952725E-03
       4.3154967E-03
       5.9472914E-03
       5.8068168E-03
       7.1684887E-03
       1.9795260E-02
       9.9613683E-03
       7.4214991E-03
       1.6403660E-02
       2.5978728E-02
       5.6217338E-03
       1.2640900E-02
       1.6239545E-02
       2.6348556E-02
       1.8083663E-02
       1.0187213E-02
       1.6246415E-02
       8.5945246E-03
       2.4056392E-02
       1.7744177E-02
       1.1061197E-02
       2.3125555E-02
       1.7247629E-02
       1.2425009E-02
       1.1655731E-02
       1.4236395E-02
       1.4066193E-02
       5.0083738E-03
       6.9156960E-03
       4.1867336E-04
       1.1182105E-02
       3.0974086E-03
       8.5838841E-03
       1.0132835E-02
       1.7335680E-02
       1.4627403E-02
       7.5228194E-03
       4.9221130E-03
       5.0149613E-03
       6.7079641E-03
       8.0275779E-03
       8.1305313E-03
       1.0490498E-02
       2.0565854E-02
       2.6923794E-02
       1.7017329E-02
       1.8760188E-02
       2.0986948E-02
       2.2084943E-02
       6.7371709E-03
       9.7832753E-03
       6.3565604E-03
       2.8806460E-03
       2.5742457E-03
       3.8613952E-03
       1.1330453E-02
       1.1291531E-02
       2.9229266E-03
       1.5854793E-02
       5.5212280E-03
       1.4588572E-02
       4.0434560E-03
       8.9448594E-04
       1.0557799E-02
       1.8667556E-02
       1.7450375E-02
       1.9331119E-02
       9.0834035E-03
       1.7914710E-02
       2.2258651E-02
       2.1496824E-02
       2.5950041E-02
       2.4511635E-02
       2.1657509E-02
       2.5368686E-02
       1.2779276E-02
       6.4553863E-03
       2.1769820E-02
       9.5799662E-03
       2.0831384E-02
       7.0293389E-03
       2.8230856E-02
       2.8495670E-02
       2.9230999E-02
       2.9713627E-02
       2.9969028E-02
       2.6805879E-02
       2.6072703E-02
       2.7854272E-02
       2.5680372E-02
       2.5967102E-02
       2.2547749E-02
       2.5072141E-02
       1.9404226E-02
       2.4641259E-02
       2.3873860E-02
       7.0334340E-03
       4.7157695E-03
       3.7694575E-03
       9.6280121E-03
       1.8185511E-02
       4.2136718E-03
       6.3305215E-03
       2.0050321E-02
       2.2793248E-02
       6.2049924E-03
       1.5159790E-02
       6.7060517E-03
       1.3668019E-02
       1.0641728E-02
       1.2395334E-02
       1.2579603E-02
       6.5368417E-03
       3.4279087E-03
       1.2428564E-04
       8.4564436E-03
       1.9036852E-03
       1.1260712E-02
       7.9504216E-03
       1.8555360E-02
       4.1296855E-04
       4.4499646E-03
       1.0355126E-02
       9.1256651E-03
       1.6258276E-02
       1.4164768E-02
       3.5747110E-03
       2.1664728E-02
       1.6989040E-03
       1.3319784E-02
       2.4356702E-02
       1.4888392E-03
       7.5155328E-04
       1.5745021E-02
       1.5469342E-02
       1.7143613E-02
       1.7308774E-02
       8.5068062E-03
       1.7797272E-02
       1.6681485E-02
       1.7365419E-02
       1.9239462E-02
       1.6148462E-02
       1.1050896E-02
       1.4649562E-02
       1.6053807E-02
       5.2573798E-04
       4.6113255E-03
       4.7541572E-03
       6.9296543E-03
       3.9718462E-03
       3.9930748E-03
       1.8431993E-03
       1.8109240E-03
       1.1616499E-03
       1.7571154E-02
       1.9394567E-02
       1.6488368E-02
       1.3641688E-02
       1.7485577E-02
       1.1330628E-02
       5.3444479E-03
       9.7030631E-03
       5.8875920E-03
       4.7198854E-03
       3.3974037E-03
       4.9769584E-03
       6.0494744E-03
       2.7774886E-02
       3.0991698E-02
       2.9301663E-02
       2.9878956E-02
       3.0788653E-02
       2.9463675E-02
       3.0323264E-02
       3.1289868E-02
       3.0995451E-02
       3.2111831E-02
       3.0499246E-02
       3.1608504E-02
       3.2636492E-02
       3.2048154E-02
       3.1734560E-02
       3.1836489E-02
       3.0937264E-02
       2.9642421E-02
       2.9172267E-02
       2.9047149E-02
       2.8978471E-02
       2.9942591E-02
       3.0552177E-02
       3.0660796E-02
       2.7391993E-02
       2.4582834E-02
       2.7612406E-02
       2.6253401E-02
       2.4822504E-02
       2.9877118E-02
       3.0993395E-02
       3.0651029E-02
       3.0317081E-02
       3.0308237E-02
       3.0863578E-02
       3.2101418E-02
       3.1561515E-02
       3.0147138E-02
       3.1454452E-02
       3.1989219E-02
       3.2174357E-02
       3.1521396E-02
       3.0568143E-02
       3.0905036E-02
       3.3390672E-02
       3.1402059E-02
       3.3216230E-02
       3.2737387E-02
       3.2689367E-02
       3.2721475E-02
       3.3736769E-02
       3.3165353E-02
       3.3016729E-02
       3.2654751E-02
       3.3150556E-02
       3.4189321E-02
       3.3618071E-02
       3.3956984E-02
       3.3041385E-02
       3.4990244E-02
       3.2681052E-02
       3.4307992E-02
       3.1780824E-02
       3.3628428E-02
       3.4543908E-02
       3.5242721E-02
       3.5087741E-02
       3.6096862E-02
       3.5594372E-02
       3.5037064E-02
       3.4050319E-02
       3.2414159E-02
       3.3129508E-02
       3.5613235E-02
       3.5725483E-02
       3.5882439E-02
       3.6709384E-02
       3.6395633E-02
       3.4794949E-02
       3.6389758E-02
       3.1905458E-02
       3.2839782E-02
       3.6196743E-02
       3.6089123E-02
       3.5636503E-02
       3.6230342E-02
       3.6625633E-02
       3.1112738E-02
       3.2830786E-02
       3.7247838E-02
       3.2264045E-02
       3.3878149E-02
       3.6847275E-02
       3.7159928E-02
       3.1152171E-02
       3.3465589E-02
       3.4053991E-02
       3.6778072E-02
       3.7261445E-02
       3.7165779E-02
       3.8078302E-02
       3.7776594E-02
       3.1683325E-02
       3.1107167E-02
       3.1930800E-02
       2.9722299E-02
       3.2027317E-02
       3.0437155E-02
       3.0510515E-02
       3.0307332E-02
       3.7772946E-02
       3.8893385E-02
       2.9508013E-02
       3.7563229E-02
       3.8049469E-02
       3.7636929E-02
       3.8416569E-02
       2.8785149E-02
       2.9908488E-02
       2.9312492E-02
       2.8414266E-02
       2.9022359E-02
       2.9177878E-02
       3.7828184E-02
       3.7278112E-02
       3.8342951E-02
       3.7598543E-02
       2.8262662E-02
       2.7688998E-02
       3.6900043E-02
       3.8909021E-02
       3.8214691E-02
       3.6442365E-02
       2.7962060E-02
       3.8814767E-02
       3.6979343E-02
       3.6295214E-02
       2.8721903E-02
       3.8220274E-02
       3.8859947E-02
       3.7489908E-02
       3.9822340E-02
       3.7555740E-02
       3.9484028E-02
       3.9360340E-02
       3.9351161E-02
       3.9584540E-02
       3.9283468E-02
       3.8796343E-02
       3.8629533E-02
       4.0188614E-02
       3.9772712E-02
       4.0408369E-02
       3.9808281E-02
       4.0055669E-02
       2.7885404E-02
       5.1742453E-03
       3.2755357E-03
       1.3222083E-03
       2.3382505E-03
       1.4262293E-03
       2.0902735E-03
       1.9172928E-03
       2.8040570E-03
       3.1960444E-03
       2.7264635E-03
       3.7351264E-03
       2.0115942E-04
       3.4500723E-04
       1.6540398E-03
       1.8950926E-03
       1.1735621E-03
       6.5290534E-04
       1.9976110E-03
       4.4124201E-04
       4.4961200E-04
       1.2735498E-03
       7.9120195E-04
       4.5603721E-04
       7.3309128E-04
       2.1042088E-04
       2.6976814E-02
       1.8547008E-02
       1.7221888E-02
       2.0263960E-02
       1.8494320E-02
       1.9177154E-02
       2.0673690E-02
       2.5454856E-02
       2.3546152E-02
       2.4640030E-02
       2.5779784E-02
       2.3807535E-02
       2.4704918E-02
       2.2502263E-02
       2.4918809E-02
       2.5889722E-02
       2.5079610E-02
       2.6794082E-02
       2.7586473E-02
       2.6643184E-02
       2.5385263E-02
       2.3348213E-02
       2.4393812E-02
       2.3331792E-02
       2.4122866E-02
       2.5146392E-02
       2.4291383E-02
       2.3091934E-02
       2.4137034E-02
       2.3521101E-02
       2.3959153E-02
       2.1517755E-02
       2.3954748E-02
       2.1816629E-02
       2.5298590E-02
       2.2939519E-02
       2.4967344E-02
       2.6039453E-02
       2.2335272E-02
       2.2745676E-02
       2.3887740E-02
       2.6115481E-02
       2.6981778E-02
       2.6290075E-02
       2.5251137E-02
       2.7734129E-02
       2.5926809E-02
       2.6418832E-02
       2.5906405E-02
       2.4825701E-02
       2.6948683E-02
       2.6874785E-02
       2.8339154E-02
       2.7024595E-02
       2.7662261E-02
       2.9118250E-02
       2.8415152E-02
       2.9590042E-02
       9.2566544E-03
       1.1825088E-02
       1.3950720E-02
       1.5064054E-02
       1.4442084E-02
       1.2655441E-02
       4.6461168E-03
       1.1565389E-03
       5.0321033E-03
       2.2126184E-03
       1.5480454E-02
       1.9857034E-02
       1.2706963E-02
       1.1177935E-02
       1.7951161E-02
       1.8407771E-02
       1.6471262E-02
       1.3998294E-02
       1.4461391E-02
       1.5787453E-02
       1.6052132E-02
       1.7845789E-02
       1.2094233E-02
       1.0119620E-02
       1.2438023E-02
       1.2289935E-02
       9.6916328E-03
       1.0890502E-02
       1.2360659E-02
       6.3266537E-03
       6.2272256E-03
       8.7222120E-03
       6.0762226E-03
       7.7798133E-03
       7.8149998E-03
       1.3495742E-02
       6.0004565E-03
       8.2608583E-03
       4.6570889E-03
       2.3154947E-03
       2.3611058E-03
       1.3994022E-03
       2.0577714E-02
       1.9266155E-02
       1.8877161E-02
       6.1824034E-03
       7.2206004E-03
       7.8857565E-03
       5.4173919E-03
       5.6351847E-03
       3.9123476E-03
       2.7676312E-02
       2.6851329E-02
       2.8658698E-02
       2.6838932E-02
       2.8813471E-02
       2.5132754E-02
       3.0020462E-02
       2.4674566E-02
       3.1144116E-02
       2.9835669E-02
       2.6805875E-02
       2.8103762E-02
       1.6931271E-02
       3.0716795E-02
       2.1797724E-02
       2.2091287E-02
       1.0222261E-02
       2.0712708E-02
       3.1824469E-02
       1.4113571E-02
       1.1198388E-02
       1.4373212E-02
       1.4085415E-02
       3.0342149E-02
       3.1805015E-02
       2.4043108E-02
       2.2683623E-02
       3.1372236E-02
       3.3410032E-02
       3.3602238E-02
       3.1310338E-02
       3.3417451E-02
       3.5112884E-02
       3.4697647E-02
       3.7583928E-02
       3.6367910E-02
       3.8492341E-02
       3.8200899E-02
       3.8827703E-02
       3.8160104E-02
       3.8798637E-02
       3.9880371E-02
       3.9354725E-02
       3.9339817E-02
       3.9513171E-02
       3.6668368E-02
       3.7262446E-02
       3.5641505E-02
       3.6886036E-02
       3.9078347E-02
       3.9251825E-02
       3.8493929E-02
       3.8215934E-02
       3.8578956E-02
       4.0120626E-02
       4.1156410E-02
       2.8565608E-03
       4.5045070E-04
       9.3827749E-04
       2.9053100E-04
       2.1116206E-02
       2.2163886E-02
       1.9525504E-02
       2.0768646E-02
       2.1476289E-02
       2.6893600E-02
       2.8668004E-02
       2.8300936E-02
       2.2264215E-02
       2.1039942E-02
       2.0109689E-02
       2.5980979E-02
       2.5159923E-02
       2.2135557E-02
       2.8322221E-02
       3.0444719E-02
       1.8276671E-03
       9.0994519E-04
       2.8610519E-03
       1.2458748E-03
       1.7177295E-03
       4.7690378E-03
       3.8706052E-04
       1.5982388E-03
       1.5694793E-04
       3.2152794E-04
       3.9011231E-04
       6.0369992E-04
       2.8144551E-04
       7.5024733E-04
       1.8077014E-04
       7.3293540E-03
       9.0732877E-03
       2.3880787E-03
       3.4806224E-03
       1.8180106E-02
       1.8740544E-02
       2.0486675E-02
       2.0471027E-02
       2.1439151E-02
       2.2338150E-02
       2.2912834E-02
       1.0946188E-02
       1.0251441E-02
       1.4443199E-02
       1.5422860E-02
       5.2770484E-03
       1.2532587E-02
       1.3675322E-02
       3.1582247E-03
       1.2689442E-02
       1.5341289E-02
       1.6944201E-02
       1.6863582E-02
       1.8127385E-02
       1.6596668E-02
       7.7636939E-04
       1.8421934E-02
       1.4762538E-02
       1.8057147E-02
       1.3747658E-02
       1.3947142E-02
       1.3323084E-02
       6.5458198E-03
       1.0316724E-02
       8.1245177E-03
       9.3671081E-03
       7.8901286E-03
       3.5058335E-03
       1.3832401E-03
       1.7435254E-02
       1.6635359E-02
       1.8887835E-02
       9.9198310E-03
       1.0074651E-02
       8.5635099E-03
       1.2358272E-02
       1.0840509E-02
       9.6523738E-03
       1.4522765E-02
       4.7024027E-03
       1.4084109E-03
       9.5351394E-04
       2.2119884E-02
       1.7486189E-02
       1.1836434E-02
       1.3976727E-02
       1.1274836E-02
       1.6249751E-02
       1.8669889E-02
       1.7547518E-02
       3.2652731E-02
       3.4450065E-02
       3.4509536E-02
       3.4794587E-02
       3.4703343E-02
       3.5175076E-02
       3.4116261E-02
       3.3991575E-02
       3.4651448E-02
       3.4007437E-02
       3.7637189E-02
       3.8079172E-02
       4.3039783E-02
       3.7891554E-02
       3.6419417E-02
       4.0662393E-02
       3.9904169E-02
       4.0696662E-02
       3.9942593E-02
       3.8595419E-02
       4.1753338E-02
       3.3704993E-02
       4.1352340E-02
       4.2452706E-02
       3.6702943E-02
       3.2519156E-02
       4.2443464E-02
       4.2085888E-02
       4.0247696E-02
       4.0497654E-02
       4.0766536E-02
       3.3945551E-02
       4.1572821E-02
       3.6746525E-02
       4.1139173E-02
       3.5522529E-02
       4.2101932E-02
       4.0907020E-02
       4.1637122E-02
       4.1286075E-02
       4.1766186E-02
       4.0399445E-02
       4.2307913E-02
       3.8554765E-02
       4.2020651E-02
       3.8141038E-02
       3.7277166E-02
       4.1756628E-02
       4.2367928E-02
       3.8699087E-02
       3.7291364E-02
       1.7565335E-02
       4.2814887E-02
       1.5386470E-02
       4.3185225E-02
       3.9032866E-02
       4.2956412E-02
       3.5301088E-02
       3.4193838E-02
       4.3030197E-02
       4.3417214E-02
       4.3402235E-02
       4.3961008E-02
       4.2752514E-02
       4.2629057E-02
       3.8170730E-02
       3.6180755E-02
       3.7759400E-02
       3.5762320E-02
       3.5159139E-02
       4.1071539E-02
       3.6671494E-02
       3.7710475E-02
       3.4734539E-02
       3.5177139E-02
       3.6872656E-02
       4.4530082E-02
       3.9257615E-02
       4.1892838E-02
       3.6165163E-02
       4.1648748E-02
       3.6666527E-02
       3.6068596E-02
       3.5040541E-02
       3.4139945E-02
       3.5496447E-02
       3.5895514E-02
       3.6103464E-02
       3.5698376E-02
       3.5160915E-02
       3.5575031E-02
       3.4687296E-02
       3.5486294E-02
       3.3978593E-02
       3.3612432E-02
       3.4276824E-02
       3.3586322E-02
       3.4265510E-02
       3.4907082E-02
       3.4418692E-02
       3.3651909E-02
       3.2919715E-02
       3.2737322E-02
       3.2616439E-02
       3.1558619E-02
       3.3241102E-02
       3.3575982E-02
       3.7090543E-02
       3.9000797E-02
       3.7988241E-02
       3.8466626E-02
       3.9901320E-02
       4.0781553E-02
       4.0479417E-02
       4.0761517E-02
       4.0496787E-02
       4.0007532E-02
       4.0913897E-02
       4.0353931E-02
       4.1535717E-02
       4.0414746E-02
       4.1411838E-02
       4.1065497E-02
       4.1872010E-02
       4.0763817E-02
       4.0909561E-02
       4.0825808E-02
       3.9971391E-02
       4.1291216E-02
       4.0448839E-02
       4.0317627E-02
       4.1057997E-02
       4.1132857E-02