# vtk DataFile Version 3.0
# Solution du M1 TR
ASCII
DATASET UNSTRUCTURED_GRID
POINTS   3280  float
0.0000000E+00  0.0000000E+00  0.2778040E-01
0.2000000E+01  0.0000000E+00  0.1960193E+01
0.2000000E+01  0.1000000E+01  0.1960323E+01
0.0000000E+00  0.1000000E+01  0.2766379E-01
0.1000000E+01  0.0000000E+00  0.9908395E+00
0.1000000E+01  0.1000000E+01  0.9907449E+00
0.1500000E+01  0.5000000E+00  0.1497415E+01
0.1500000E+01  0.0000000E+00  0.1474485E+01
0.1723284E+01  0.3570951E+00  0.1705462E+01
0.1500000E+01  0.2500000E+00  0.1495575E+01
0.1515103E+01  0.2763186E+00  0.1510443E+01
0.1594866E+01  0.2826386E+00  0.1586080E+01
0.1562500E+01  0.1875000E+00  0.1553817E+01
0.1534357E+01  0.1819434E+00  0.1526450E+01
0.1561083E+01  0.3343258E+00  0.1554474E+01
0.1750000E+01  0.0000000E+00  0.1715555E+01
0.1503267E+01  0.1622339E+00  0.1495833E+01
0.1514910E+01  0.2261192E+00  0.1509374E+01
0.1610795E+01  0.1290247E+00  0.1594910E+01
0.1539062E+01  0.1536458E+00  0.1529098E+01
0.1510772E+01  0.1982718E+00  0.1504513E+01
0.1541862E+01  0.2179813E+00  0.1534904E+01
0.1475030E+01  0.2178147E+00  0.1471167E+01
0.1539206E+01  0.2578835E+00  0.1533029E+01
0.1521085E+01  0.2465697E+00  0.1515548E+01
0.1496499E+01  0.2146241E+00  0.1491461E+01
0.1481433E+01  0.1870688E+00  0.1475919E+01
0.1586261E+01  0.1960616E+00  0.1576261E+01
0.1460896E+01  0.2899333E+00  0.1458916E+01
0.1542195E+01  0.2867649E+00  0.1536203E+01
0.1486080E+01  0.2754813E+00  0.1482738E+01
0.1536278E+01  0.3247610E+00  0.1531014E+01
0.1510131E+01  0.3295675E+00  0.1506268E+01
0.1455545E+01  0.2514402E+00  0.1453279E+01
0.1610995E+01  0.1909452E+00  0.1599830E+01
0.1564462E+01  0.2395252E+00  0.1556832E+01
0.1571524E+01  0.3026484E+00  0.1564078E+01
0.1613657E+01  0.2555806E+00  0.1603696E+01
0.1633998E+01  0.2714643E+00  0.1622758E+01
0.1534973E+01  0.3650914E+00  0.1529555E+01
0.1583157E+01  0.2286349E+00  0.1574188E+01
0.1586501E+01  0.1581416E+00  0.1574823E+01
0.1651985E+01  0.2274641E+00  0.1639429E+01
0.1619170E+01  0.2936434E+00  0.1608884E+01
0.1678889E+01  0.2641389E+00  0.1664594E+01
0.1642286E+01  0.2930521E+00  0.1630447E+01
0.1526415E+01  0.3446283E+00  0.1521590E+01
0.1662420E+01  0.3044259E+00  0.1649260E+01
0.1636786E+01  0.2469276E+00  0.1625417E+01
0.1588953E+01  0.3366240E+00  0.1580739E+01
0.1616427E+01  0.3314099E+00  0.1606496E+01
0.1598305E+01  0.3102698E+00  0.1589359E+01
0.1655410E+01  0.2614708E+00  0.1642702E+01
0.1487553E+01  0.3072167E+00  0.1484520E+01
0.1520126E+01  0.3036443E+00  0.1515499E+01
0.1477894E+01  0.2544664E+00  0.1474756E+01
0.1567847E+01  0.2133479E+00  0.1559311E+01
0.1663947E+01  0.3299725E+00  0.1650981E+01
0.1567022E+01  0.2696000E+00  0.1559690E+01
0.1678598E+01  0.3509559E+00  0.1664325E+01
0.1611933E+01  0.3827205E+00  0.1601919E+01
0.1640491E+01  0.3197373E+00  0.1629000E+01
0.1588015E+01  0.2526666E+00  0.1579354E+01
0.1708471E+01  0.3144917E+00  0.1691896E+01
0.1606944E+01  0.3564315E+00  0.1597444E+01
0.1604614E+01  0.2314093E+00  0.1594637E+01
0.1643491E+01  0.3631133E+00  0.1631657E+01
0.2000000E+01  0.5000000E+00  0.1960490E+01
0.1494727E+01  0.3621796E+00  0.1491485E+01
0.1701807E+01  0.3477237E+00  0.1685614E+01
0.1572156E+01  0.3701847E+00  0.1564798E+01
0.1688392E+01  0.3285111E+00  0.1673573E+01
0.1695932E+01  0.3904821E+00  0.1680147E+01
0.1636337E+01  0.3418163E+00  0.1625194E+01
0.1505941E+01  0.9448485E-01  0.1487358E+01
0.1423727E+01  0.1910920E+00  0.1420729E+01
0.1481447E+01  0.3359634E+00  0.1478980E+01
0.1441613E+01  0.3726133E+00  0.1441163E+01
0.1466699E+01  0.3599060E+00  0.1464978E+01
0.1476682E+01  0.4107296E+00  0.1474634E+01
0.1434448E+01  0.3273535E+00  0.1434194E+01
0.1464523E+01  0.3867258E+00  0.1463100E+01
0.1456903E+01  0.3373583E+00  0.1455695E+01
0.1454188E+01  0.3132491E+00  0.1452775E+01
0.1424069E+01  0.2919612E+00  0.1423662E+01
0.1490969E+01  0.3884111E+00  0.1488130E+01
0.1428051E+01  0.4202828E+00  0.1428537E+01
0.1513790E+01  0.3782958E+00  0.1509595E+01
0.1547789E+01  0.4092466E+00  0.1541924E+01
0.1535154E+01  0.3889763E+00  0.1529841E+01
0.1512699E+01  0.4170463E+00  0.1508888E+01
0.1441554E+01  0.3983607E+00  0.1441312E+01
0.1395941E+01  0.3853832E+00  0.1397843E+01
0.1420578E+01  0.3854393E+00  0.1421251E+01
0.1408336E+01  0.3518173E+00  0.1409402E+01
0.1549967E+01  0.3074339E+00  0.1543860E+01
0.1651639E+01  0.4114272E+00  0.1639304E+01
0.1668616E+01  0.3788978E+00  0.1654999E+01
0.1674624E+01  0.4027285E+00  0.1660741E+01
0.1706988E+01  0.4343785E+00  0.1690601E+01
0.1673984E+01  0.4357547E+00  0.1660040E+01
0.1695270E+01  0.4139894E+00  0.1679858E+01
0.1737273E+01  0.4034108E+00  0.1717987E+01
0.1645630E+01  0.3875965E+00  0.1633737E+01
0.1625874E+01  0.4052508E+00  0.1615194E+01
0.1627808E+01  0.4540126E+00  0.1617574E+01
0.1587158E+01  0.4136289E+00  0.1578968E+01
0.1633718E+01  0.4293591E+00  0.1622936E+01
0.1651607E+01  0.4466828E+00  0.1639601E+01
0.1605650E+01  0.4356658E+00  0.1596558E+01
0.1682168E+01  0.4808869E+00  0.1667540E+01
0.1671711E+01  0.4594749E+00  0.1658295E+01
0.1698428E+01  0.4596870E+00  0.1682938E+01
0.1646221E+01  0.4851828E+00  0.1634557E+01
0.1607747E+01  0.4151289E+00  0.1598288E+01
0.1584205E+01  0.4841185E+00  0.1576552E+01
0.1747573E+01  0.4622079E+00  0.1727491E+01
0.1568396E+01  0.4481495E+00  0.1561480E+01
0.1601760E+01  0.4629165E+00  0.1593203E+01
0.1723356E+01  0.4540167E+00  0.1705619E+01
0.1732897E+01  0.4294241E+00  0.1713915E+01
0.1722218E+01  0.4972746E+00  0.1704324E+01
0.1715121E+01  0.4754441E+00  0.1697970E+01
0.1584567E+01  0.4345797E+00  0.1576771E+01
0.1563465E+01  0.4258523E+00  0.1556934E+01
0.1534166E+01  0.4440258E+00  0.1529204E+01
0.1615090E+01  0.4918227E+00  0.1605673E+01
0.1717469E+01  0.4134541E+00  0.1700094E+01
0.1718488E+01  0.3909170E+00  0.1700701E+01
0.1741353E+01  0.3769080E+00  0.1721684E+01
0.1781199E+01  0.4241746E+00  0.1757488E+01
0.2000000E+01  0.2500000E+00  0.1960355E+01
0.1756308E+01  0.4199875E+00  0.1735325E+01
0.1762447E+01  0.3937207E+00  0.1740837E+01
0.1765097E+01  0.4438197E+00  0.1743084E+01
0.1807974E+01  0.4625425E+00  0.1779924E+01
0.1789176E+01  0.4471344E+00  0.1764034E+01
0.1514158E+01  0.1287364E+00  0.1502729E+01
0.1777674E+01  0.4803377E+00  0.1754333E+01
0.1811145E+01  0.4395021E+00  0.1783866E+01
0.1850404E+01  0.4566449E+00  0.1818013E+01
0.1748483E+01  0.3522599E+00  0.1728206E+01
0.1731235E+01  0.3304535E+00  0.1712713E+01
0.1777870E+01  0.3654441E+00  0.1755031E+01
0.1748149E+01  0.2821176E+00  0.1728020E+01
0.1732875E+01  0.3039003E+00  0.1714181E+01
0.1708314E+01  0.2807181E+00  0.1691970E+01
0.1767650E+01  0.3193756E+00  0.1745775E+01
0.1372661E+01  0.1704076E+00  0.1370236E+01
0.1411157E+01  0.2494459E+00  0.1410808E+01
0.1448000E+01  0.2246098E+00  0.1445424E+01
0.1360382E+01  0.2278583E+00  0.1361493E+01
0.1433680E+01  0.2431125E+00  0.1432299E+01
0.1388814E+01  0.2314916E+00  0.1388869E+01
0.1314549E+01  0.2124991E+00  0.1317090E+01
0.1404157E+01  0.2007613E+00  0.1402714E+01
0.1415035E+01  0.1072182E+00  0.1404713E+01
0.1520299E+01  0.1091515E+00  0.1505393E+01
0.1459010E+01  0.1690672E+00  0.1453537E+01
0.1436337E+01  0.2690050E+00  0.1435167E+01
0.1443480E+01  0.1263360E+00  0.1435051E+01
0.1625000E+01  0.0000000E+00  0.1594440E+01
0.1414954E+01  0.2197329E+00  0.1413580E+01
0.1335299E+01  0.2266424E+00  0.1337313E+01
0.1396801E+01  0.1612344E+00  0.1392716E+01
0.1792033E+01  0.3934232E+00  0.1767581E+01
0.1541310E+01  0.1264947E+00  0.1528644E+01
0.1483859E+01  0.1256971E+00  0.1472733E+01
0.1500341E+01  0.1139400E+00  0.1487137E+01
0.1498380E+01  0.1421255E+00  0.1488610E+01
0.1478242E+01  0.1468909E+00  0.1470229E+01
0.1453147E+01  0.1972183E+00  0.1449394E+01
0.1348833E+01  0.2067866E+00  0.1349803E+01
0.1368157E+01  0.2800764E+00  0.1370052E+01
0.1250000E+01  0.0000000E+00  0.1233115E+01
0.1496272E+01  0.2780308E-01  0.1471883E+01
0.1430228E+01  0.1622338E+00  0.1424887E+01
0.1544491E+01  0.1012427E+00  0.1526913E+01
0.1505524E+01  0.5428530E-01  0.1483097E+01
0.1576405E+01  0.1180891E+00  0.1560628E+01
0.1526885E+01  0.8834234E-01  0.1506528E+01
0.1558557E+01  0.6358195E-01  0.1535153E+01
0.1372206E+01  0.9428859E-01  0.1359947E+01
0.1414069E+01  0.8636887E-01  0.1399712E+01
0.1351230E+01  0.1581055E+00  0.1348848E+01
0.1371634E+01  0.2528708E+00  0.1372980E+01
0.1392978E+01  0.2694234E+00  0.1393672E+01
0.1321668E+01  0.2603105E+00  0.1325178E+01
0.1392566E+01  0.3027057E+00  0.1393763E+01
0.1345601E+01  0.2495441E+00  0.1347885E+01
0.1349996E+01  0.1827855E+00  0.1349563E+01
0.1475238E+01  0.9618066E-01  0.1459125E+01
0.1487372E+01  0.4556180E+00  0.1485102E+01
0.1432024E+01  0.3509343E+00  0.1431914E+01
0.1619231E+01  0.5383449E+00  0.1609373E+01
0.1532505E+01  0.4233173E+00  0.1527604E+01
0.1547332E+01  0.4788657E+00  0.1541881E+01
0.1627786E+01  0.4750493E+00  0.1617320E+01
0.1750658E+01  0.4911384E+00  0.1730232E+01
0.1783313E+01  0.5336292E+00  0.1758251E+01
0.1744147E+01  0.5299352E+00  0.1723569E+01
0.1772978E+01  0.5077787E+00  0.1749461E+01
0.1739682E+01  0.5092411E+00  0.1719788E+01
0.1715917E+01  0.5251974E+00  0.1698305E+01
0.1809547E+01  0.4999146E+00  0.1780877E+01
0.1486188E+01  0.5335558E+00  0.1483981E+01
0.1695320E+01  0.5058771E+00  0.1679896E+01
0.1793562E+01  0.5145404E+00  0.1766962E+01
0.1827482E+01  0.5355643E+00  0.1796852E+01
0.1805457E+01  0.5332234E+00  0.1777448E+01
0.1812320E+01  0.5734372E+00  0.1784008E+01
0.1794794E+01  0.5557356E+00  0.1768521E+01
0.1637325E+01  0.5533192E+00  0.1626237E+01
0.1761146E+01  0.5591762E+00  0.1738792E+01
0.1789115E+01  0.5788851E+00  0.1763279E+01
0.1693317E+01  0.6123782E+00  0.1678066E+01
0.1522396E+01  0.5359490E+00  0.1518340E+01
0.1814654E+01  0.6254783E+00  0.1785924E+01
0.1726166E+01  0.5505978E+00  0.1707273E+01
0.1691322E+01  0.5307786E+00  0.1676300E+01
0.1516987E+01  0.5143680E+00  0.1513360E+01
0.1661909E+01  0.5147686E+00  0.1648963E+01
0.1761865E+01  0.6508066E+00  0.1739305E+01
0.1692174E+01  0.5698207E+00  0.1677103E+01
0.1780214E+01  0.6037461E+00  0.1755863E+01
[...]
POINT_DATA    3280
SCALARS hauteur float
LOOKUP_TABLE DEFAULT
       2.7780402E-02
       5.9706575E-05
       1.8984259E-04
       2.7663789E-02
       1.0772959E-02
       1.0678288E-02
       2.7314636E-02
       4.3855184E-03
       1.6529128E-02
       2.5475226E-02
       2.5540578E-02
       2.3005873E-02
       2.2463000E-02
       2.2677742E-02
       2.4508473E-02
       4.3896231E-04
       2.2530541E-02
       2.4660971E-02
       1.6222842E-02
       2.0713833E-02
       2.3856101E-02
       2.3776891E-02
       2.5539203E-02
       2.4505173E-02
       2.4783013E-02
       2.4791869E-02
       2.4016564E-02
       2.1619444E-02
       2.7140172E-02
       2.4749047E-02
       2.6281217E-02
       2.5359376E-02
       2.6239026E-02
       2.6748361E-02
       2.0948059E-02
       2.3555220E-02
       2.3880254E-02
       2.2204100E-02
       2.1330890E-02
       2.5178568E-02
       2.2588538E-02
       1.9946246E-02
       2.0373166E-02
       2.1990045E-02
       1.9170937E-02
       2.0897099E-02
       2.5602568E-02
       1.9977836E-02
       2.1257242E-02
       2.3459078E-02
       2.2290226E-02
       2.2913825E-02
       2.0289408E-02
       2.6619498E-02
       2.5673727E-02
       2.6321608E-02
       2.2716380E-02
       2.0201734E-02
       2.3904048E-02
       1.9186481E-02
       2.2117393E-02
       2.1210228E-02
       2.2993895E-02
       1.7480784E-02
       2.2532529E-02
       2.2008229E-02
       2.0926076E-02
       3.5700324E-04
       2.6552598E-02
       1.7729644E-02
       2.3980389E-02
       1.8836182E-02
       1.8019919E-02
       2.1474604E-02
       1.1435656E-02
       2.5381107E-02
       2.7063416E-02
       2.8286344E-02
       2.7516046E-02
       2.7386986E-02
       2.8339610E-02
       2.7769754E-02
       2.7833010E-02
       2.7573405E-02
       2.7979828E-02
       2.6880999E-02
       2.8952173E-02
       2.5980693E-02
       2.4987740E-02
       2.5287163E-02
       2.6342783E-02
       2.8492768E-02
       2.9728630E-02
       2.8989842E-02
       2.9138834E-02
       2.4789926E-02
       2.0588252E-02
       1.9644578E-02
       1.9497337E-02
       1.7639572E-02
       1.9424100E-02
       1.8380990E-02
       1.5343428E-02
       2.0910167E-02
       2.1728872E-02
       2.2214090E-02
       2.3447096E-02
       2.1784106E-02
       2.0915611E-02
       2.2914502E-02
       1.8902736E-02
       1.9906314E-02
       1.8365974E-02
       2.1150587E-02
       2.2588185E-02
       2.3926101E-02
       1.4753665E-02
       2.4347553E-02
       2.3371461E-02
       1.6615777E-02
       1.5559956E-02
       1.6436030E-02
       1.7037515E-02
       2.3789595E-02
       2.4634209E-02
       2.5619882E-02
       2.2776952E-02
       1.6860400E-02
       1.6467591E-02
       1.5042551E-02
       1.1794375E-02
       2.2174637E-04
       1.4026548E-02
       1.3521092E-02
       1.3171524E-02
       7.9890241E-03
       1.0522859E-02
       1.8752518E-02
       1.2093938E-02
       8.8230271E-03
       4.4940640E-03
       1.4576208E-02
       1.5987352E-02
       1.2600091E-02
       1.4718099E-02
       1.5848229E-02
       1.7708834E-02
       1.3360151E-02
       2.4937249E-02
       2.7780974E-02
       2.6287629E-02
       2.8227521E-02
       2.7196990E-02
       2.7738900E-02
       2.8745065E-02
       2.6546696E-02
       1.7884105E-02
       1.5398800E-02
       2.3610243E-02
       2.7461757E-02
       2.0344707E-02
       1.8316551E-03
       2.6830792E-02
       2.8630821E-02
       2.3757243E-02
       1.1270298E-02
       1.8057995E-02
       1.8452359E-02
       1.6703444E-02
       2.0098339E-02
       2.1453790E-02
       2.5212652E-02
       2.7856681E-02
       2.9166443E-02
       8.0316415E-03
       5.4377414E-03
       2.3167691E-02
       1.3208667E-02
       7.5834892E-03
       1.5646616E-02
       1.0079321E-02
       7.6637346E-03
       1.5093542E-02
       1.3830755E-02
       2.4552040E-02
       2.8687686E-02
       2.8460884E-02
       2.9856205E-02
       2.8955048E-02
       2.9105665E-02
       2.6477037E-02
       1.3294267E-02
       2.7378726E-02
       2.8435438E-02
       2.2418819E-02
       2.5647532E-02
       2.5392178E-02
       2.1980905E-02
       1.4470874E-02
       1.0486306E-02
       1.4188705E-02
       1.1825205E-02
       1.4783507E-02
       1.6592304E-02
       7.4005691E-03
       2.7418280E-02
       1.8369357E-02
       9.1524327E-03
       5.7977371E-03
       7.9791450E-03
       7.8141148E-03
       9.5039359E-03
       2.1548991E-02
       1.2751775E-02
       9.8267711E-03
       1.8503322E-02
       2.6290534E-02
       7.4421588E-03
       1.5514625E-02
       1.8692504E-02
       2.6612102E-02
       2.0181666E-02
       1.2560031E-02
       1.8660411E-02
       1.1134677E-02
       2.4704086E-02
       1.9962709E-02
       1.3798641E-02
       2.3993948E-02
       1.8695923E-02
       1.5031684E-02
       1.4128117E-02
       1.6087996E-02
       1.5679271E-02
       6.4742241E-03
       8.1492603E-03
       3.5457360E-04
       1.2668202E-02
       3.9853773E-03
       1.0702567E-02
       1.2746270E-02
       1.8793511E-02
       1.6447074E-02
       9.6580876E-03
       6.5453810E-03
       6.6646180E-03
       8.7014487E-03
       1.0121973E-02
       1.0177693E-02
       1.2631696E-02
       2.0732634E-02
       2.6999841E-02
       1.7488350E-02
       1.9062425E-02
       2.1176168E-02
       2.2187561E-02
       7.6262827E-03
       1.0522028E-02
       7.1453603E-03
       3.3667543E-03
       3.2119734E-03
       4.4874830E-03
       1.2103924E-02
       1.2304058E-02
       3.6851101E-03
       1.6689661E-02
       6.5187245E-03
       1.5426788E-02
       4.8421399E-03
       1.1428223E-03
       1.1768662E-02
       1.9230103E-02
       1.8037949E-02
       1.9731485E-02
       9.5283215E-03
       1.8127896E-02
       2.2336376E-02
       2.1619414E-02
       2.5999667E-02
       2.4577740E-02
       2.1684719E-02
       2.5440809E-02
       1.3003494E-02
       6.4781305E-03
       2.1886163E-02
       9.9036009E-03
       2.0962006E-02
       7.4644601E-03
       2.8386610E-02
       2.8692190E-02
       2.9432249E-02
       2.9933451E-02
       3.0143632E-02
       2.7091396E-02
       2.6398674E-02
       2.8088729E-02
       2.6052165E-02
       2.6283709E-02
       2.3538302E-02
       2.5532770E-02
       2.1257964E-02
       2.5147329E-02
       2.4523696E-02
       9.2476514E-03
       6.3465932E-03
       5.0465476E-03
       1.2392849E-02
       2.0088059E-02
       5.5226502E-03
       8.4147499E-03
       2.1650672E-02
       2.3773878E-02
       7.6482748E-03
       1.7135332E-02
       8.4568184E-03
       1.5990903E-02
       1.2751904E-02
       1.4278093E-02
       1.4764268E-02
       8.4439274E-03
       4.3124680E-03
       1.5092603E-04
       1.0305167E-02
       2.3867146E-03
       1.2960264E-02
       1.0259222E-02
       2.0035454E-02
       4.2879359E-04
       5.9571382E-03
       1.2216361E-02
       1.0715384E-02
       1.7924003E-02
       1.6750049E-02
       4.1877265E-03
       2.2885957E-02
       2.1094962E-03
       1.4709395E-02
       2.4974258E-02
       1.8281727E-03
       8.6854323E-04
       1.7301221E-02
       1.6801461E-02
       1.8816539E-02
       1.9089297E-02
       9.8211753E-03
       1.8932906E-02
       1.7714314E-02
       1.8653561E-02
       2.0323566E-02
       1.7297199E-02
       1.2420552E-02
       1.5797387E-02
       1.7668186E-02
       6.2740632E-04
       6.1967321E-03
       6.2595733E-03
       8.8814095E-03
       4.7173232E-03
       4.5564797E-03
       2.2514782E-03
       2.2895812E-03
       1.4878976E-03
       1.8585239E-02
       2.0076150E-02
       1.6688143E-02
       1.3919209E-02
       1.7633312E-02
       1.1482502E-02
       5.5621144E-03
       9.9347356E-03
       6.0003887E-03
       5.0435245E-03
       3.8750690E-03
       5.5163399E-03
       6.6961879E-03
       2.7900979E-02
       3.1173467E-02
       2.9468032E-02
       3.0028815E-02
       3.0935876E-02
       2.9587839E-02
       3.0445243E-02
       3.1352716E-02
       3.1102782E-02
       3.2198013E-02
       3.0572385E-02
       3.1698041E-02
       3.2621708E-02
       3.2095585E-02
       3.1710603E-02
       3.1851114E-02
       3.0966216E-02
       2.9707860E-02
       2.9253928E-02
       2.9050216E-02
       2.9020546E-02
       2.9978065E-02
       3.0498068E-02
       3.0656035E-02
       2.7420813E-02
       2.4549922E-02
       2.7668026E-02
       2.6322116E-02
       2.4841592E-02
       3.0077137E-02
       3.1174264E-02
       3.0828580E-02
       3.0520360E-02
       3.0520093E-02
       3.1055872E-02
       3.2217546E-02
       3.1718447E-02
       3.0333625E-02
       3.1610363E-02
       3.2095031E-02
       3.2284893E-02
       3.1664930E-02
       3.0762502E-02
       3.1058945E-02
       3.3390954E-02
       3.1524741E-02
       3.3220101E-02
       3.2804317E-02
       3.2747826E-02
       3.2742984E-02
       3.3624316E-02
       3.3107007E-02
       3.2920477E-02
       3.2724934E-02
       3.3174001E-02
       3.4073078E-02
       3.3580150E-02
       3.3850185E-02
       3.3032095E-02
       3.4700115E-02
       3.2725327E-02
       3.4110562E-02
       3.1814548E-02
       3.3598149E-02
       3.4355854E-02
       3.4975276E-02
       3.4820169E-02
       3.5649676E-02
       3.5216724E-02
       3.4635677E-02
       3.3825314E-02
       3.2442540E-02
       3.3150018E-02
       3.5265753E-02
       3.5392010E-02
       3.5506638E-02
       3.6156429E-02
       3.5903790E-02
       3.4480653E-02
       3.5814924E-02
       3.1980598E-02
       3.2814371E-02
       3.5766754E-02
       3.5703748E-02
       3.5203593E-02
       3.5721804E-02
       3.6058650E-02
       3.1177899E-02
       3.2818561E-02
       3.6552135E-02
       3.2261190E-02
       3.3799039E-02
       3.6243649E-02
       3.6455543E-02
       3.1144076E-02
       3.3419696E-02
       3.3964082E-02
       3.6139392E-02
       3.6444635E-02
       3.6409811E-02
       3.7130698E-02
       3.6853356E-02
       3.1683462E-02
       3.1135273E-02
       3.1918126E-02
       2.9792217E-02
       3.2014030E-02
       3.0494860E-02
       3.0629542E-02
       3.0314842E-02
       3.6934028E-02
       3.7685205E-02
       2.9687770E-02
       3.6734306E-02
       3.7176907E-02
       3.6613874E-02
       3.7349749E-02
       2.8965014E-02
       3.0019908E-02
       2.9449974E-02
       2.8535619E-02
       2.9123740E-02
       2.9182930E-02
       3.6999833E-02
       3.6594337E-02
       3.7372578E-02
       3.6661495E-02
       2.8440249E-02
       2.7870738E-02
       3.6315339E-02
       3.7739699E-02
       3.7126947E-02
       3.5668093E-02
       2.8071541E-02
       3.7494326E-02
       3.6172819E-02
       3.5633761E-02
       2.8782397E-02
       3.7048831E-02
       3.7596182E-02
       3.6307311E-02
       3.8371605E-02
       3.6458273E-02
       3.8062709E-02
       3.8018388E-02
       3.8046090E-02
       3.8275711E-02
       3.8029687E-02
       3.7692984E-02
       3.7599567E-02
       3.8687195E-02
       3.8360550E-02
       3.8825412E-02
       3.8423133E-02
       3.8618560E-02
       2.8141415E-02
       6.9598323E-03
       4.3784206E-03
       1.6594744E-03
       3.0757613E-03
       1.8298792E-03
       2.7081258E-03
       2.5032461E-03
       3.7387678E-03
       4.2756838E-03
       3.6188035E-03
       4.9868262E-03
       1.7485408E-04
       3.5795224E-04
       2.1523068E-03
       2.4904019E-03
       1.4964208E-03
       7.7331461E-04
       2.6133250E-03
       5.0561982E-04
       4.9168483E-04
       1.6377528E-03
       9.7155035E-04
       5.4292357E-04
       9.0917987E-04
       1.9240163E-04
       2.7147724E-02
       2.0528356E-02
       1.9333315E-02
       2.1810306E-02
       2.0205379E-02
       2.0868748E-02
       2.1959869E-02
       2.5862562E-02
       2.4331870E-02
       2.5121130E-02
       2.6058044E-02
       2.4477439E-02
       2.5199118E-02
       2.3424502E-02
       2.5333981E-02
       2.6169126E-02
       2.5550638E-02
       2.6965855E-02
       2.7686416E-02
       2.6884766E-02
       2.5767725E-02
       2.4062378E-02
       2.4944936E-02
       2.4032493E-02
       2.4744387E-02
       2.5697725E-02
       2.4916810E-02
       2.3824394E-02
       2.4793128E-02
       2.4220080E-02
       2.4601750E-02
       2.2406933E-02
       2.4617933E-02
       2.2526040E-02
       2.5897518E-02
       2.3639911E-02
       2.5563782E-02
       2.6531307E-02
       2.2948075E-02
       2.3395733E-02
       2.4503629E-02
       2.6516724E-02
       2.7492628E-02
       2.6817024E-02
       2.5860962E-02
       2.8078014E-02
       2.6510825E-02
       2.6989870E-02
       2.6492830E-02
       2.5426282E-02
       2.7395781E-02
       2.7245909E-02
       2.8450673E-02
       2.7288988E-02
       2.7908169E-02
       2.9327544E-02
       2.8622744E-02
       2.9638449E-02
       1.1949309E-02
       1.4666993E-02
       1.6698839E-02
       1.7709788E-02
       1.6822266E-02
       1.4251004E-02
       5.9279294E-03
       1.4359351E-03
       6.1268690E-03
       2.8502129E-03
       1.7603059E-02
       2.0988678E-02
       1.3992291E-02
       1.2527394E-02
       1.9158404E-02
       1.9407292E-02
       1.7865662E-02
       1.5652571E-02
       1.6181323E-02
       1.7135437E-02
       1.7096693E-02
       1.8608089E-02
       1.3545490E-02
       1.2307623E-02
       1.4510125E-02
       1.4277611E-02
       1.1631149E-02
       1.2927356E-02
       1.4136026E-02
       8.2868345E-03
       7.8828676E-03
       1.0858094E-02
       8.0216403E-03
       9.9599913E-03
       1.0024899E-02
       1.5518167E-02
       7.8119052E-03
       1.0300686E-02
       5.3268988E-03
       2.8062958E-03
       2.9686135E-03
       1.8023317E-03
       2.1165394E-02
       1.9358529E-02
       1.8920116E-02
       6.4067388E-03
       7.5286566E-03
       8.0723103E-03
       5.7234632E-03
       6.0173642E-03
       4.3751402E-03
       2.7746903E-02
       2.6844857E-02
       2.8568257E-02
       2.6784703E-02
       2.8777112E-02
       2.4984895E-02
       2.9933150E-02
       2.4589690E-02
       3.1001081E-02
       2.9689178E-02
       2.6704568E-02
       2.7915623E-02
       1.6695878E-02
       3.0452484E-02
       2.1719429E-02
       2.1962844E-02
       9.5909083E-03
       2.0512856E-02
       3.1708255E-02
       1.3749109E-02
       1.1178517E-02
       1.4135920E-02
       1.3913724E-02
       3.0141283E-02
       3.1566740E-02
       2.4091129E-02
       2.2740334E-02
       3.1510072E-02
       3.3368171E-02
       3.3460585E-02
       3.1405360E-02
       3.3390636E-02
       3.4892789E-02
       3.4531661E-02
       3.6848383E-02
       3.5906825E-02
       3.7447635E-02
       3.6956388E-02
       3.7360596E-02
       3.6837362E-02
       3.7413063E-02
       3.8281500E-02
       3.7836470E-02
       3.7883285E-02
       3.7898180E-02
       3.5322360E-02
       3.6006344E-02
       3.4724981E-02
       3.5946863E-02
       3.7914284E-02
       3.8057459E-02
       3.7501044E-02
       3.7312743E-02
       3.7570736E-02
       3.8569356E-02
       3.9427804E-02
       3.7733184E-03
       4.6995209E-04
       1.1464963E-03
       2.6302359E-04
       2.2488478E-02
       2.3287260E-02
       2.0898956E-02
       2.1869668E-02
       2.2684320E-02
       2.7061798E-02
       2.8663625E-02
       2.8336587E-02
       2.3171455E-02
       2.2126993E-02
       2.0949325E-02
       2.6328061E-02
       2.5659747E-02
       2.2691087E-02
       2.8380027E-02
       3.0420441E-02
       2.2831338E-03
       1.1135842E-03
       3.5265656E-03
       1.4946041E-03
       2.0943667E-03
       5.7340462E-03
       4.4850041E-04
       1.9620421E-03
       1.9169444E-04
       3.9482012E-04
       4.0199193E-04
       6.3500990E-04
       3.4375002E-04
       9.1884508E-04
       1.8913797E-04
       8.6927579E-03
       1.0459207E-02
       3.0555585E-03
       4.6053251E-03
       1.9583091E-02
       1.9947021E-02
       2.1504860E-02
       2.1408124E-02
       2.2388274E-02
       2.3144034E-02
       2.3661041E-02
       1.2324539E-02
       1.1576144E-02
       1.5685340E-02
       1.6400745E-02
       6.2639993E-03
       1.3785155E-02
       1.4848663E-02
       3.8238477E-03
       1.3964128E-02
       1.6379460E-02
       1.7869780E-02
       1.7665584E-02
       1.9051122E-02
       1.7473645E-02
       9.0373030E-04
       1.9210355E-02
       1.5726346E-02
       1.8907054E-02
       1.4824134E-02
       1.4916121E-02
       1.4458379E-02
       7.8668980E-03
       1.1732438E-02
       9.6330324E-03
       1.0678202E-02
       9.4161074E-03
       4.3782527E-03
       1.6852760E-03
       1.8138331E-02
       1.7403135E-02
       1.9578734E-02
       1.2161897E-02
       1.2340601E-02
       1.0773655E-02
       1.4497961E-02
       1.3076455E-02
       1.1845851E-02
       1.6403944E-02
       6.1832659E-03
       1.7982776E-03
       1.2339050E-03
       2.2094029E-02
       1.7393606E-02
       1.1740959E-02
       1.3877984E-02
       1.1061010E-02
       1.6231665E-02
       1.8646877E-02
       1.7397600E-02
       3.2483761E-02
       3.4315335E-02
       3.4377862E-02
       3.4616458E-02
       3.4540901E-02
       3.4954652E-02
       3.4024916E-02
       3.3919757E-02
       3.4485078E-02
       3.3926313E-02
       3.6874306E-02
       3.6682931E-02
       4.1038858E-02
       3.6362708E-02
       3.5174455E-02
       3.8819852E-02
       3.8185825E-02
       3.8877727E-02
       3.8182276E-02
       3.7037666E-02
       3.9807714E-02
       3.2440282E-02
       3.9453096E-02
       4.0473278E-02
       3.5279138E-02
       3.2054523E-02
       4.0442827E-02
       4.0116448E-02
       3.8554314E-02
       3.8813647E-02
       3.8995041E-02
       3.2469393E-02
       3.9700810E-02
       3.5623988E-02
       3.9338781E-02
       3.4286780E-02
       4.0130344E-02
       3.9188795E-02
       3.9719001E-02
       3.9431457E-02
       3.9848502E-02
       3.8650460E-02
       4.0323079E-02
       3.6945198E-02
       4.0074333E-02
       3.6534980E-02
       3.5933642E-02
       3.9869553E-02
       4.0375270E-02
       3.7189431E-02
       3.5769989E-02
       1.7129345E-02
       4.0785186E-02
       1.4130079E-02
       4.1139653E-02
       3.7338555E-02
       4.0891410E-02
       3.4162352E-02
       3.3060374E-02
       4.0965681E-02
       4.1334755E-02
       4.1327645E-02
       4.1907518E-02
       4.0717861E-02
       4.0598440E-02
       3.6516767E-02
       3.5058051E-02
       3.6242142E-02
       3.4440151E-02
       3.3813054E-02
       3.9228187E-02
       3.5104852E-02
       3.6265613E-02
       3.3486523E-02
       3.4473115E-02
       3.5337827E-02
       4.2585977E-02
       3.7598460E-02
       3.9933419E-02
       3.5266766E-02
       3.9707346E-02
       3.5646087E-02
       3.5048856E-02
       3.4086892E-02
       3.3375193E-02
       3.4682915E-02
       3.5255445E-02
       3.5298929E-02
       3.5013948E-02
       3.4622926E-02
       3.5049125E-02
       3.4099472E-02
       3.5030975E-02
       3.3370920E-02
       3.3214617E-02
       3.3808112E-02
       3.3089608E-02
       3.3888428E-02
       3.4477963E-02
       3.4101266E-02
       3.3402984E-02
       3.2675681E-02
       3.2424448E-02
       3.2224858E-02
       3.1166377E-02
       3.3080260E-02
       3.3261509E-02
       3.6201435E-02
       3.7870116E-02
       3.7147773E-02
       3.7433271E-02
       3.8350186E-02
       3.9140878E-02
       3.8915919E-02
       3.9140636E-02
       3.8939114E-02
       3.8576235E-02
       3.9246358E-02
       3.8838180E-02
       3.9709558E-02
       3.8865341E-02
       3.9613829E-02
       3.9352435E-02
       3.9974353E-02
       3.9132517E-02
       3.9188874E-02
       3.9156142E-02
       3.8443172E-02
       3.9504735E-02
       3.8845450E-02
       3.8633368E-02
       3.9341428E-02
       3.9393702E-02