# vtk DataFile Version 3.0
# Solution du M1 TR
ASCII
DATASET UNSTRUCTURED_GRID
POINTS   3280  float
0.0000000E+00  0.0000000E+00  0.2174970E-01
0.2000000E+01  0.0000000E+00  0.1960226E+01
0.2000000E+01  0.1000000E+01  0.1960377E+01
0.0000000E+00  0.1000000E+01  0.2177960E-01
0.1000000E+01  0.0000000E+00  0.9917665E+00
0.1000000E+01  0.1000000E+01  0.9918788E+00
0.1500000E+01  0.5000000E+00  0.1497197E+01
0.1500000E+01  0.0000000E+00  0.1474054E+01
0.1723284E+01  0.3570951E+00  0.1703456E+01
0.1500000E+01  0.2500000E+00  0.1495483E+01
0.1515103E+01  0.2763186E+00  0.1510245E+01
0.1594866E+01  0.2826386E+00  0.1585533E+01
0.1562500E+01  0.1875000E+00  0.1553657E+01
0.1534357E+01  0.1819434E+00  0.1526341E+01
0.1561083E+01  0.3343258E+00  0.1554018E+01
0.1750000E+01  0.0000000E+00  0.1715472E+01
0.1503267E+01  0.1622339E+00  0.1495738E+01
0.1514910E+01  0.2261192E+00  0.1509292E+01
0.1610795E+01  0.1290247E+00  0.1594166E+01
0.1539062E+01  0.1536458E+00  0.1528894E+01
0.1510772E+01  0.1982718E+00  0.1504447E+01
0.1541862E+01  0.2179813E+00  0.1534779E+01
0.1475030E+01  0.2178147E+00  0.1471122E+01
0.1539206E+01  0.2578835E+00  0.1532814E+01
0.1521085E+01  0.2465697E+00  0.1515415E+01
0.1496499E+01  0.2146241E+00  0.1491416E+01
0.1481433E+01  0.1870688E+00  0.1475873E+01
0.1586261E+01  0.1960616E+00  0.1575944E+01
0.1460896E+01  0.2899333E+00  0.1458763E+01
0.1542195E+01  0.2867649E+00  0.1535898E+01
0.1486080E+01  0.2754813E+00  0.1482587E+01
0.1536278E+01  0.3247610E+00  0.1530655E+01
0.1510131E+01  0.3295675E+00  0.1505952E+01
0.1455545E+01  0.2514402E+00  0.1453196E+01
0.1610995E+01  0.1909452E+00  0.1599319E+01
0.1564462E+01  0.2395252E+00  0.1556590E+01
0.1571524E+01  0.3026484E+00  0.1563609E+01
0.1613657E+01  0.2555806E+00  0.1603058E+01
0.1633998E+01  0.2714643E+00  0.1621873E+01
0.1534973E+01  0.3650914E+00  0.1529076E+01
0.1583157E+01  0.2286349E+00  0.1573868E+01
0.1586501E+01  0.1581416E+00  0.1574479E+01
0.1651985E+01  0.2274641E+00  0.1638464E+01
0.1619170E+01  0.2936434E+00  0.1608097E+01
0.1678889E+01  0.2641389E+00  0.1663097E+01
0.1642286E+01  0.2930521E+00  0.1629391E+01
0.1526415E+01  0.3446283E+00  0.1521192E+01
0.1662420E+01  0.3044259E+00  0.1647930E+01
0.1636786E+01  0.2469276E+00  0.1624611E+01
0.1588953E+01  0.3366240E+00  0.1580126E+01
0.1616427E+01  0.3314099E+00  0.1605694E+01
0.1598305E+01  0.3102698E+00  0.1588717E+01
0.1655410E+01  0.2614708E+00  0.1641538E+01
0.1487553E+01  0.3072167E+00  0.1484287E+01
0.1520126E+01  0.3036443E+00  0.1515211E+01
0.1477894E+01  0.2544664E+00  0.1474660E+01
0.1567847E+01  0.2133479E+00  0.1559107E+01
0.1663947E+01  0.3299725E+00  0.1649740E+01
0.1567022E+01  0.2696000E+00  0.1559333E+01
0.1678598E+01  0.3509559E+00  0.1662866E+01
0.1611933E+01  0.3827205E+00  0.1600947E+01
0.1640491E+01  0.3197373E+00  0.1627982E+01
0.1588015E+01  0.2526666E+00  0.1578929E+01
0.1708471E+01  0.3144917E+00  0.1690041E+01
0.1606944E+01  0.3564315E+00  0.1596623E+01
0.1604614E+01  0.2314093E+00  0.1594140E+01
0.1643491E+01  0.3631133E+00  0.1630530E+01
0.2000000E+01  0.5000000E+00  0.1960512E+01
0.1494727E+01  0.3621796E+00  0.1491146E+01
0.1701807E+01  0.3477237E+00  0.1683838E+01
0.1572156E+01  0.3701847E+00  0.1564177E+01
0.1688392E+01  0.3285111E+00  0.1672017E+01
0.1695932E+01  0.3904821E+00  0.1678399E+01
0.1636337E+01  0.3418163E+00  0.1624202E+01
0.1505941E+01  0.9448485E-01  0.1486779E+01
0.1423727E+01  0.1910920E+00  0.1420682E+01
0.1481447E+01  0.3359634E+00  0.1478702E+01
0.1441613E+01  0.3726133E+00  0.1440892E+01
0.1466699E+01  0.3599060E+00  0.1464685E+01
0.1476682E+01  0.4107296E+00  0.1474331E+01
0.1434448E+01  0.3273535E+00  0.1433973E+01
0.1464523E+01  0.3867258E+00  0.1462810E+01
0.1456903E+01  0.3373583E+00  0.1455440E+01
0.1454188E+01  0.3132491E+00  0.1452561E+01
0.1424069E+01  0.2919612E+00  0.1423504E+01
0.1490969E+01  0.3884111E+00  0.1487795E+01
0.1428051E+01  0.4202828E+00  0.1428307E+01
0.1513790E+01  0.3782958E+00  0.1509197E+01
0.1547789E+01  0.4092466E+00  0.1541386E+01
0.1535154E+01  0.3889763E+00  0.1529356E+01
0.1512699E+01  0.4170463E+00  0.1508512E+01
0.1441554E+01  0.3983607E+00  0.1441051E+01
0.1395941E+01  0.3853832E+00  0.1397623E+01
0.1420578E+01  0.3854393E+00  0.1421008E+01
0.1408336E+01  0.3518173E+00  0.1409175E+01
0.1549967E+01  0.3074339E+00  0.1543485E+01
0.1651639E+01  0.4114272E+00  0.1637935E+01
0.1668616E+01  0.3788978E+00  0.1653616E+01
0.1674624E+01  0.4027285E+00  0.1659223E+01
0.1706988E+01  0.4343785E+00  0.1688463E+01
0.1673984E+01  0.4357547E+00  0.1658296E+01
0.1695270E+01  0.4139894E+00  0.1678039E+01
0.1737273E+01  0.4034108E+00  0.1715646E+01
0.1645630E+01  0.3875965E+00  0.1632529E+01
0.1625874E+01  0.4052508E+00  0.1614099E+01
0.1627808E+01  0.4540126E+00  0.1616444E+01
0.1587158E+01  0.4136289E+00  0.1578218E+01
0.1633718E+01  0.4293591E+00  0.1621779E+01
0.1651607E+01  0.4466828E+00  0.1638131E+01
0.1605650E+01  0.4356658E+00  0.1595630E+01
0.1682168E+01  0.4808869E+00  0.1665241E+01
0.1671711E+01  0.4594749E+00  0.1656420E+01
0.1698428E+01  0.4596870E+00  0.1680752E+01
0.1646221E+01  0.4851828E+00  0.1632887E+01
0.1607747E+01  0.4151289E+00  0.1597365E+01
0.1584205E+01  0.4841185E+00  0.1575616E+01
0.1747573E+01  0.4622079E+00  0.1724791E+01
0.1568396E+01  0.4481495E+00  0.1560765E+01
0.1601760E+01  0.4629165E+00  0.1592255E+01
0.1723356E+01  0.4540167E+00  0.1703172E+01
0.1732897E+01  0.4294241E+00  0.1711448E+01
0.1722218E+01  0.4972746E+00  0.1701464E+01
0.1715121E+01  0.4754441E+00  0.1695351E+01
0.1584567E+01  0.4345797E+00  0.1576002E+01
0.1563465E+01  0.4258523E+00  0.1556330E+01
0.1534166E+01  0.4440258E+00  0.1528719E+01
0.1615090E+01  0.4918227E+00  0.1604404E+01
0.1717469E+01  0.4134541E+00  0.1697977E+01
0.1718488E+01  0.3909170E+00  0.1698614E+01
0.1741353E+01  0.3769080E+00  0.1719414E+01
0.1781199E+01  0.4241746E+00  0.1754984E+01
0.2000000E+01  0.2500000E+00  0.1960359E+01
0.1756308E+01  0.4199875E+00  0.1732812E+01
0.1762447E+01  0.3937207E+00  0.1738394E+01
0.1765097E+01  0.4438197E+00  0.1740418E+01
0.1807974E+01  0.4625425E+00  0.1777790E+01
0.1789176E+01  0.4471344E+00  0.1761504E+01
0.1514158E+01  0.1287364E+00  0.1502422E+01
0.1777674E+01  0.4803377E+00  0.1751626E+01
0.1811145E+01  0.4395021E+00  0.1781623E+01
0.1850404E+01  0.4566449E+00  0.1816794E+01
0.1748483E+01  0.3522599E+00  0.1725957E+01
0.1731235E+01  0.3304535E+00  0.1710617E+01
0.1777870E+01  0.3654441E+00  0.1752662E+01
0.1748149E+01  0.2821176E+00  0.1725727E+01
0.1732875E+01  0.3039003E+00  0.1712046E+01
0.1708314E+01  0.2807181E+00  0.1690142E+01
0.1767650E+01  0.3193756E+00  0.1743477E+01
0.1372661E+01  0.1704076E+00  0.1370174E+01
0.1411157E+01  0.2494459E+00  0.1410725E+01
0.1448000E+01  0.2246098E+00  0.1445377E+01
0.1360382E+01  0.2278583E+00  0.1361424E+01
0.1433680E+01  0.2431125E+00  0.1432223E+01
0.1388814E+01  0.2314916E+00  0.1388800E+01
0.1314549E+01  0.2124991E+00  0.1317043E+01
0.1404157E+01  0.2007613E+00  0.1402666E+01
0.1415035E+01  0.1072182E+00  0.1404536E+01
0.1520299E+01  0.1091515E+00  0.1504895E+01
0.1459010E+01  0.1690672E+00  0.1453471E+01
0.1436337E+01  0.2690050E+00  0.1435055E+01
0.1443480E+01  0.1263360E+00  0.1434906E+01
0.1625000E+01  0.0000000E+00  0.1594031E+01
0.1414954E+01  0.2197329E+00  0.1413525E+01
0.1335299E+01  0.2266424E+00  0.1337252E+01
0.1396801E+01  0.1612344E+00  0.1392639E+01
0.1792033E+01  0.3934232E+00  0.1765186E+01
0.1541310E+01  0.1264947E+00  0.1528267E+01
0.1483859E+01  0.1256971E+00  0.1472494E+01
0.1500341E+01  0.1139400E+00  0.1486761E+01
0.1498380E+01  0.1421255E+00  0.1488411E+01
0.1478242E+01  0.1468909E+00  0.1470102E+01
0.1453147E+01  0.1972183E+00  0.1449360E+01
0.1348833E+01  0.2067866E+00  0.1349746E+01
0.1368157E+01  0.2800764E+00  0.1369931E+01
0.1250000E+01  0.0000000E+00  0.1233459E+01
0.1496272E+01  0.2780308E-01  0.1471387E+01
0.1430228E+01  0.1622338E+00  0.1424799E+01
0.1544491E+01  0.1012427E+00  0.1526267E+01
0.1505524E+01  0.5428530E-01  0.1482494E+01
0.1576405E+01  0.1180891E+00  0.1560048E+01
0.1526885E+01  0.8834234E-01  0.1505814E+01
0.1558557E+01  0.6358195E-01  0.1534325E+01
0.1372206E+01  0.9428859E-01  0.1359834E+01
0.1414069E+01  0.8636887E-01  0.1399510E+01
0.1351230E+01  0.1581055E+00  0.1348782E+01
0.1371634E+01  0.2528708E+00  0.1372889E+01
0.1392978E+01  0.2694234E+00  0.1393564E+01
0.1321668E+01  0.2603105E+00  0.1325100E+01
0.1392566E+01  0.3027057E+00  0.1393609E+01
0.1345601E+01  0.2495441E+00  0.1347804E+01
0.1349996E+01  0.1827855E+00  0.1349507E+01
0.1475238E+01  0.9618066E-01  0.1458724E+01
0.1487372E+01  0.4556180E+00  0.1484841E+01
0.1432024E+01  0.3509343E+00  0.1431658E+01
0.1619231E+01  0.5383449E+00  0.1607746E+01
0.1532505E+01  0.4233173E+00  0.1527146E+01
0.1547332E+01  0.4788657E+00  0.1541326E+01
0.1627786E+01  0.4750493E+00  0.1616013E+01
0.1750658E+01  0.4911384E+00  0.1727372E+01
0.1783313E+01  0.5336292E+00  0.1755554E+01
0.1744147E+01  0.5299352E+00  0.1720478E+01
0.1772978E+01  0.5077787E+00  0.1746637E+01
0.1739682E+01  0.5092411E+00  0.1716776E+01
0.1715917E+01  0.5251974E+00  0.1695328E+01
0.1809547E+01  0.4999146E+00  0.1778868E+01
0.1486188E+01  0.5335558E+00  0.1483824E+01
0.1695320E+01  0.5058771E+00  0.1677266E+01
0.1793562E+01  0.5145404E+00  0.1764547E+01
0.1827482E+01  0.5355643E+00  0.1795273E+01
0.1805457E+01  0.5332234E+00  0.1775278E+01
0.1812320E+01  0.5734372E+00  0.1781866E+01
0.1794794E+01  0.5557356E+00  0.1766021E+01
0.1637325E+01  0.5533192E+00  0.1624271E+01
0.1761146E+01  0.5591762E+00  0.1735785E+01
0.1789115E+01  0.5788851E+00  0.1760702E+01
0.1693317E+01  0.6123782E+00  0.1675750E+01
0.1522396E+01  0.5359490E+00  0.1517969E+01
0.1814654E+01  0.6254783E+00  0.1783978E+01
0.1726166E+01  0.5505978E+00  0.1704152E+01
0.1691322E+01  0.5307786E+00  0.1673601E+01
0.1516987E+01  0.5143680E+00  0.1513049E+01
0.1661909E+01  0.5147686E+00  0.1646636E+01
0.1761865E+01  0.6508066E+00  0.1736742E+01
0.1692174E+01  0.5698207E+00  0.1674444E+01
0.1780214E+01  0.6037461E+00  0.1753132E+01
[...]
POINT_DATA    3280
SCALARS hauteur float
LOOKUP_TABLE DEFAULT
       2.1749704E-02
       9.2666034E-05
       2.4395938E-04
       2.1779604E-02
       1.1699944E-02
       1.1812225E-02
       2.7096782E-02
       3.9545455E-03
       1.4522750E-02
       2.5383234E-02
       2.5342821E-02
       2.2458509E-02
       2.2303350E-02
       2.2568791E-02
       2.4052222E-02
       3.5592052E-04
       2.2435676E-02
       2.4579471E-02
       1.5479778E-02
       2.0510731E-02
       2.3790038E-02
       2.3651757E-02
       2.5494609E-02
       2.4289989E-02
       2.4650385E-02
       2.4746745E-02
       2.3970918E-02
       2.1302107E-02
       2.6987986E-02
       2.4444525E-02
       2.6130248E-02
       2.4999962E-02
       2.5923939E-02
       2.6665048E-02
       2.0436896E-02
       2.3312869E-02
       2.3410867E-02
       2.1566223E-02
       2.0445995E-02
       2.4699562E-02
       2.2268437E-02
       1.9602094E-02
       1.9408550E-02
       2.1203361E-02
       1.7674002E-02
       1.9841410E-02
       2.5204264E-02
       1.8647378E-02
       2.0451365E-02
       2.2846657E-02
       2.1488473E-02
       2.2272230E-02
       1.9125917E-02
       2.6385725E-02
       2.5385518E-02
       2.6225598E-02
       2.2512417E-02
       1.8960447E-02
       2.3546309E-02
       1.7728209E-02
       2.1145635E-02
       2.0191734E-02
       2.2568734E-02
       1.5625670E-02
       2.1711157E-02
       2.1511211E-02
       1.9799335E-02
       3.7869545E-04
       2.6213953E-02
       1.5953819E-02
       2.3360141E-02
       1.7280159E-02
       1.6271770E-02
       2.0482819E-02
       1.0856401E-02
       2.5334579E-02
       2.6785260E-02
       2.8014812E-02
       2.7222578E-02
       2.7084135E-02
       2.8118663E-02
       2.7480335E-02
       2.7578086E-02
       2.7359691E-02
       2.7821320E-02
       2.6546548E-02
       2.8722427E-02
       2.5582647E-02
       2.4449005E-02
       2.4802468E-02
       2.5966736E-02
       2.8231564E-02
       2.9508204E-02
       2.8746760E-02
       2.8912322E-02
       2.4414930E-02
       1.9219026E-02
       1.8261189E-02
       1.7979875E-02
       1.5501156E-02
       1.7680214E-02
       1.6561699E-02
       1.3002596E-02
       1.9702013E-02
       2.0633869E-02
       2.1084470E-02
       2.2697400E-02
       2.0627280E-02
       1.9445652E-02
       2.1986009E-02
       1.6603969E-02
       1.8031417E-02
       1.6179450E-02
       1.9480412E-02
       2.1666076E-02
       2.2989947E-02
       1.2053412E-02
       2.3632598E-02
       2.2423618E-02
       1.4168630E-02
       1.3092932E-02
       1.3575637E-02
       1.4418568E-02
       2.3020675E-02
       2.4029902E-02
       2.5134054E-02
       2.1508352E-02
       1.4743063E-02
       1.4381442E-02
       1.2772232E-02
       9.2903742E-03
       2.2614412E-04
       1.1513652E-02
       1.1079028E-02
       1.0504966E-02
       5.8552713E-03
       7.9925022E-03
       1.8445906E-02
       9.3876014E-03
       6.5800410E-03
       3.2755534E-03
       1.2327867E-02
       1.3891271E-02
       1.0231326E-02
       1.2424534E-02
       1.3713279E-02
       1.5880991E-02
       1.1062424E-02
       2.4874751E-02
       2.7697772E-02
       2.6240572E-02
       2.8159067E-02
       2.7121591E-02
       2.7670318E-02
       2.8698220E-02
       2.6498166E-02
       1.7706858E-02
       1.4900903E-02
       2.3544196E-02
       2.7349202E-02
       2.0199385E-02
       1.4227383E-03
       2.6775967E-02
       2.8569874E-02
       2.3680840E-02
       8.8750983E-03
       1.7680792E-02
       1.8212847E-02
       1.6327462E-02
       1.9898870E-02
       2.1326870E-02
       2.5178386E-02
       2.7799795E-02
       2.9045934E-02
       8.3759044E-03
       4.9409476E-03
       2.3080360E-02
       1.2562971E-02
       6.9802231E-03
       1.5066278E-02
       9.3648631E-03
       6.8358974E-03
       1.4981106E-02
       1.3628420E-02
       2.4486501E-02
       2.8596643E-02
       2.8353217E-02
       2.9777753E-02
       2.8801645E-02
       2.9025187E-02
       2.6421170E-02
       1.2893241E-02
       2.7118067E-02
       2.8179437E-02
       2.0792064E-02
       2.5189688E-02
       2.4837190E-02
       2.0673913E-02
       1.1610625E-02
       7.7887573E-03
       1.1097630E-02
       9.0006205E-03
       1.1772266E-02
       1.3615473E-02
       5.3915161E-03
       2.7260573E-02
       1.5738908E-02
       6.7373351E-03
       4.2191549E-03
       5.8100258E-03
       5.6714971E-03
       7.0039755E-03
       1.9583789E-02
       9.7449206E-03
       7.2503423E-03
       1.6187474E-02
       2.5919864E-02
       5.4968856E-03
       1.2393767E-02
       1.5993220E-02
       2.6300322E-02
       1.7854523E-02
       9.9968197E-03
       1.6001334E-02
       8.4043955E-03
       2.3956586E-02
       1.7504826E-02
       1.0836131E-02
       2.2997202E-02
       1.7108692E-02
       1.2197269E-02
       1.1445756E-02
       1.4070102E-02
       1.3927694E-02
       4.9064252E-03
       6.8268820E-03
       4.2367988E-04
       1.1066061E-02
       3.0381850E-03
       8.4214838E-03
       9.9243764E-03
       1.7175021E-02
       1.4440674E-02
       7.3590813E-03
       4.8082389E-03
       4.8994375E-03
       6.5589521E-03
       7.8620981E-03
       7.9694154E-03
       1.0307164E-02
       2.0548878E-02
       2.6945509E-02
       1.6953018E-02
       1.8719237E-02
       2.0958642E-02
       2.2095330E-02
       6.6438375E-03
       9.6977428E-03
       6.2724606E-03
       2.8304340E-03
       2.5179339E-03
       3.7978479E-03
       1.1238462E-02
       1.1174433E-02
       2.8588183E-03
       1.5743085E-02
       5.4247539E-03
       1.4479130E-02
       3.9682661E-03
       8.7551931E-04
       1.0424820E-02
       1.8585234E-02
       1.7367032E-02
       1.9270142E-02
       9.0313082E-03
       1.7899650E-02
       2.2270342E-02
       2.1498553E-02
       2.5965241E-02
       2.4526553E-02
       2.1667560E-02
       2.5387916E-02
       1.2759025E-02
       6.4423589E-03
       2.1776621E-02
       9.5426423E-03
       2.0836170E-02
       6.9766007E-03
       2.8245288E-02
       2.8505868E-02
       2.9244024E-02
       2.9725420E-02
       2.9985093E-02
       2.6782629E-02
       2.6034934E-02
       2.7844655E-02
       2.5628233E-02
       2.5915558E-02
       2.2404595E-02
       2.4995234E-02
       1.9186283E-02
       2.4571180E-02
       2.3781333E-02
       6.8743617E-03
       4.6073002E-03
       3.6868836E-03
       9.4169649E-03
       1.7974950E-02
       4.1257356E-03
       6.1860839E-03
       1.9855412E-02
       2.2649234E-02
       6.1000327E-03
       1.4971146E-02
       6.5778737E-03
       1.3455189E-02
       1.0470188E-02
       1.2236822E-02
       1.2390015E-02
       6.4001641E-03
       3.3671783E-03
       1.2220994E-04
       8.3144467E-03
       1.8717956E-03
       1.1124480E-02
       7.7796748E-03
       1.8394956E-02
       4.1244607E-04
       4.3508607E-03
       1.0206466E-02
       9.0040576E-03
       1.6099215E-02
       1.3923974E-02
       3.5292232E-03
       2.1499396E-02
       1.6725275E-03
       1.3206266E-02
       2.4255120E-02
       1.4675378E-03
       7.4427750E-04
       1.5603738E-02
       1.5353967E-02
       1.6973193E-02
       1.7120951E-02
       8.4116105E-03
       1.7695632E-02
       1.6591380E-02
       1.7247003E-02
       1.9137823E-02
       1.6049464E-02
       1.0945836E-02
       1.4552975E-02
       1.5880094E-02
       5.1915323E-04
       4.5042497E-03
       4.6487952E-03
       6.7846232E-03
       3.9000669E-03
       3.9322647E-03
       1.8059702E-03
       1.7700045E-03
       1.1358627E-03
       1.7441314E-02
       1.9298899E-02
       1.6475160E-02
       1.3614732E-02
       1.7483281E-02
       1.1316919E-02
       5.3094904E-03
       9.6767353E-03
       5.8639705E-03
       4.6748944E-03
       3.3445101E-03
       4.9152489E-03
       5.9778195E-03
       2.7790837E-02
       3.1008644E-02
       2.9318898E-02
       2.9896777E-02
       3.0803840E-02
       2.9483319E-02
       3.0340136E-02
       3.1300846E-02
       3.1009534E-02
       3.2122334E-02
       3.0513576E-02
       3.1620026E-02
       3.2639664E-02
       3.2056290E-02
       3.1738345E-02
       3.1842882E-02
       3.0947050E-02
       2.9659158E-02
       2.9191757E-02
       2.9057458E-02
       2.8993681E-02
       2.9955561E-02
       3.0554979E-02
       3.0668338E-02
       2.7405662E-02
       2.4590044E-02
       2.7629771E-02
       2.6271389E-02
       2.4833417E-02
       2.9891619E-02
       3.1008450E-02
       3.0666105E-02
       3.0331582E-02
       3.0321600E-02
       3.0878880E-02
       3.2120057E-02
       3.1576853E-02
       3.0161634E-02
       3.1473417E-02
       3.2012996E-02
       3.2187938E-02
       3.1535068E-02
       3.0583424E-02
       3.0925009E-02
       3.3404780E-02
       3.1415538E-02
       3.3223183E-02
       3.2752033E-02
       3.2699645E-02
       3.2727823E-02
       3.3733606E-02
       3.3165216E-02
       3.3013251E-02
       3.2674642E-02
       3.3160704E-02
       3.4191688E-02
       3.3624554E-02
       3.3956777E-02
       3.3075520E-02
       3.4978910E-02
       3.2708228E-02
       3.4299956E-02
       3.1816082E-02
       3.3648595E-02
       3.4540098E-02
       3.5241052E-02
       3.5081603E-02
       3.6082105E-02
       3.5580370E-02
       3.5014478E-02
       3.4038165E-02
       3.2448210E-02
       3.3151567E-02
       3.5604522E-02
       3.5725724E-02
       3.5876053E-02
       3.6695845E-02
       3.6382123E-02
       3.4778693E-02
       3.6363460E-02
       3.1935011E-02
       3.2882187E-02
       3.6190535E-02
       3.6091703E-02
       3.5616242E-02
       3.6209185E-02
       3.6604294E-02
       3.1142799E-02
       3.2869277E-02
       3.7223836E-02
       3.2304807E-02
       3.3912143E-02
       3.6826505E-02
       3.7131983E-02
       3.1190030E-02
       3.3500626E-02
       3.4081224E-02
       3.6750556E-02
       3.7224763E-02
       3.7132630E-02
       3.8041603E-02
       3.7737981E-02
       3.1723000E-02
       3.1140661E-02
       3.1974439E-02
       2.9740990E-02
       3.2070280E-02
       3.0464083E-02
       3.0532584E-02
       3.0336837E-02
       3.7741618E-02
       3.8851300E-02
       2.9518264E-02
       3.7529327E-02
       3.8019795E-02
       3.7594335E-02
       3.8375998E-02
       2.8786927E-02
       2.9926776E-02
       2.9322180E-02
       2.8409860E-02
       2.9029019E-02
       2.9192102E-02
       3.7799460E-02
       3.7257373E-02
       3.8308220E-02
       3.7558083E-02
       2.8256269E-02
       2.7671834E-02
       3.6887422E-02
       3.8868023E-02
       3.8172536E-02
       3.6403899E-02
       2.7950248E-02
       3.8773965E-02
       3.6941491E-02
       3.6261401E-02
       2.8725668E-02
       3.8177561E-02
       3.8817958E-02
       3.7449100E-02
       3.9782748E-02
       3.7513206E-02
       3.9444573E-02
       3.9318859E-02
       3.9309411E-02
       3.9544083E-02
       3.9242529E-02
       3.8757840E-02
       3.8594509E-02
       4.0149407E-02
       3.9732010E-02
       4.0373063E-02
       3.9767543E-02
       4.0015710E-02
       2.7878527E-02
       5.0558906E-03
       3.2046666E-03
       1.3010913E-03
       2.2914118E-03
       1.4007517E-03
       2.0510690E-03
       1.8801482E-03
       2.7428927E-03
       3.1239844E-03
       2.6672855E-03
       3.6501769E-03
       2.0307943E-04
       3.4478503E-04
       1.6219727E-03
       1.8562199E-03
       1.1526187E-03
       6.4561140E-04
       1.9570928E-03
       4.3721845E-04
       4.4754369E-04
       1.2498275E-03
       7.7962860E-04
       4.5030993E-04
       7.2153848E-04
       2.1175163E-04
       2.6950896E-02
       1.8323135E-02
       1.6997103E-02
       2.0073003E-02
       1.8301563E-02
       1.8979500E-02
       2.0513984E-02
       2.5382860E-02
       2.3422839E-02
       2.4565173E-02
       2.5724549E-02
       2.3701553E-02
       2.4617632E-02
       2.2372809E-02
       2.4845363E-02
       2.5843037E-02
       2.5024313E-02
       2.6761660E-02
       2.7568629E-02
       2.6614010E-02
       2.5332107E-02
       2.3258386E-02
       2.4321266E-02
       2.3259722E-02
       2.4053805E-02
       2.5099131E-02
       2.4231099E-02
       2.3027230E-02
       2.4079738E-02
       2.3455038E-02
       2.3913267E-02
       2.1431030E-02
       2.3902089E-02
       2.1757962E-02
       2.5258307E-02
       2.2882447E-02
       2.4920890E-02
       2.6005441E-02
       2.2293481E-02
       2.2697775E-02
       2.3849539E-02
       2.6082832E-02
       2.6959092E-02
       2.6259578E-02
       2.5215778E-02
       2.7723035E-02
       2.5893724E-02
       2.6394697E-02
       2.5876909E-02
       2.4793278E-02
       2.6926068E-02
       2.6852818E-02
       2.8343788E-02
       2.7004837E-02
       2.7653609E-02
       2.9129353E-02
       2.8418576E-02
       2.9612396E-02
       9.0517018E-03
       1.1586538E-02
       1.3699183E-02
       1.4811423E-02
       1.4215843E-02
       1.2525097E-02
       4.5567740E-03
       1.1375546E-03
       4.9548090E-03
       2.1725775E-03
       1.5270261E-02
       1.9740324E-02
       1.2604982E-02
       1.1075337E-02
       1.7807041E-02
       1.8280486E-02
       1.6310011E-02
       1.3817568E-02
       1.4277690E-02
       1.5628429E-02
       1.5919154E-02
       1.7740716E-02
       1.1931987E-02
       9.9233288E-03
       1.2240935E-02
       1.2094219E-02
       9.5102268E-03
       1.0695812E-02
       1.2175303E-02
       6.1739304E-03
       6.0817448E-03
       8.5371711E-03
       5.9341070E-03
       7.6061139E-03
       7.6443055E-03
       1.3303125E-02
       5.8678684E-03
       8.1013553E-03
       4.5870045E-03
       2.2691244E-03
       2.3095208E-03
       1.3679330E-03
       2.0493233E-02
       1.9272201E-02
       1.8885547E-02
       6.1482686E-03
       7.1807015E-03
       7.8597955E-03
       5.3742799E-03
       5.5859242E-03
       3.8583115E-03
       2.7696401E-02
       2.6860479E-02
       2.8658775E-02
       2.6843463E-02
       2.8819168E-02
       2.5130676E-02
       3.0020267E-02
       2.4677687E-02
       3.1138280E-02
       2.9829882E-02
       2.6805837E-02
       2.8096393E-02
       1.6938555E-02
       3.0702164E-02
       2.1803391E-02
       2.2093543E-02
       1.0251596E-02
       2.0713379E-02
       3.1820567E-02
       1.4127042E-02
       1.1200381E-02
       1.4385585E-02
       1.4096388E-02
       3.0332045E-02
       3.1791391E-02
       2.4055616E-02
       2.2695529E-02
       3.1394655E-02
       3.3412936E-02
       3.3595716E-02
       3.1337893E-02
       3.3446082E-02
       3.5131463E-02
       3.4709444E-02
       3.7562471E-02
       3.6363145E-02
       3.8453892E-02
       3.8159735E-02
       3.8795785E-02
       3.8122203E-02
       3.8760589E-02
       3.9850641E-02
       3.9322069E-02
       3.9302411E-02
       3.9491704E-02
       3.6642696E-02
       3.7225625E-02
       3.5600694E-02
       3.6844251E-02
       3.9039602E-02
       3.9212700E-02
       3.8459578E-02
       3.8185862E-02
       3.8544583E-02
       4.0085134E-02
       4.1126949E-02
       2.7981817E-03
       4.4947875E-04
       9.2548207E-04
       2.9294527E-04
       2.0935879E-02
       2.2004854E-02
       1.9367126E-02
       2.0640733E-02
       2.1315151E-02
       2.6859372E-02
       2.8675713E-02
       2.8299871E-02
       2.2146594E-02
       2.0908444E-02
       2.0034686E-02
       2.5943822E-02
       2.5110548E-02
       2.2105770E-02
       2.8325142E-02
       3.0479599E-02
       1.7969636E-03
       8.9661618E-04
       2.8154625E-03
       1.2305376E-03
       1.6926856E-03
       4.7020527E-03
       3.8324759E-04
       1.5736365E-03
       1.5456323E-04
       3.1659445E-04
       3.8987907E-04
       6.0239940E-04
       2.7694833E-04
       7.3870674E-04
       1.7974816E-04
       7.2293910E-03
       8.9695821E-03
       2.3450603E-03
       3.4077858E-03
       1.8036946E-02
       1.8622260E-02
       2.0386282E-02
       2.0384088E-02
       2.1337119E-02
       2.2254739E-02
       2.2827848E-02
       1.0840241E-02
       1.0153090E-02
       1.4340075E-02
       1.5334239E-02
       5.2093659E-03
       1.2425828E-02
       1.3574978E-02
       3.1132723E-03
       1.2586749E-02
       1.5249957E-02
       1.6861478E-02
       1.6790117E-02
       1.8045199E-02
       1.6516292E-02
       7.6873458E-04
       1.8350740E-02
       1.4673993E-02
       1.7980834E-02
       1.3649472E-02
       1.3858977E-02
       1.3222355E-02
       6.4457181E-03
       1.0200812E-02
       8.0095111E-03
       9.2602573E-03
       7.7725897E-03
       3.4460902E-03
       1.3644034E-03
       1.7374396E-02
       1.6566306E-02
       1.8827500E-02
       9.7264495E-03
       9.8830639E-03
       8.3895595E-03
       1.2161062E-02
       1.0648471E-02
       9.4730009E-03
       1.4337120E-02
       4.6000857E-03
       1.3766336E-03
       9.3338795E-04
       2.2128946E-02
       1.7494708E-02
       1.1844532E-02
       1.3984934E-02
       1.1288933E-02
       1.6256862E-02
       1.8677705E-02
       1.7554722E-02
       3.2643959E-02
       3.4476767E-02
       3.4537418E-02
       3.4812904E-02
       3.4728767E-02
       3.5193652E-02
       3.4136267E-02
       3.4005070E-02
       3.4657536E-02
       3.4015622E-02
       3.7613117E-02
       3.8047285E-02
       4.3110724E-02
       3.7989338E-02
       3.6386747E-02
       4.0675255E-02
       3.9896217E-02
       4.0697913E-02
       3.9944949E-02
       3.8577029E-02
       4.1789134E-02
       3.3689776E-02
       4.1364059E-02
       4.2504616E-02
       3.6685574E-02
       3.2492041E-02
       4.2478192E-02
       4.2101364E-02
       4.0227156E-02
       4.0471294E-02
       4.0751582E-02
       3.3985295E-02
       4.1559762E-02
       3.6705825E-02
       4.1121468E-02
       3.5493602E-02
       4.2140174E-02
       4.0880018E-02
       4.1642693E-02
       4.1278586E-02
       4.1764469E-02
       4.0388674E-02
       4.2312484E-02
       3.8546047E-02
       4.2018744E-02
       3.8138459E-02
       3.7246883E-02
       4.1742092E-02
       4.2383745E-02
       3.8673511E-02
       3.7282814E-02
       1.7705367E-02
       4.2860245E-02
       1.5446594E-02
       4.3242467E-02
       3.9036757E-02
       4.2986699E-02
       3.5267042E-02
       3.4164161E-02
       4.3069152E-02
       4.3461995E-02
       4.3452519E-02
       4.4040214E-02
       4.2787289E-02
       4.2650322E-02
       3.8183620E-02
       3.6142247E-02
       3.7744875E-02
       3.5739928E-02
       3.5144354E-02
       4.1068566E-02
       3.6687053E-02
       3.7687158E-02
       3.4711327E-02
       3.5140036E-02
       3.6873685E-02
       4.4644288E-02
       3.9247951E-02
       4.1913948E-02
       3.6123947E-02
       4.1673519E-02
       3.6624574E-02
       3.6027296E-02
       3.5001300E-02
       3.4102462E-02
       3.5456746E-02
       3.5861201E-02
       3.6063852E-02
       3.5662093E-02
       3.5130330E-02
       3.5546017E-02
       3.4654161E-02
       3.5462142E-02
       3.3944915E-02
       3.3588221E-02
       3.4248952E-02
       3.3557112E-02
       3.4242963E-02
       3.4882115E-02
       3.4400345E-02
       3.3637381E-02
       3.2905323E-02
       3.2718284E-02
       3.2592759E-02
       3.1535866E-02
       3.3232749E-02
       3.3556894E-02
       3.7049810E-02
       3.8962966E-02
       3.7961072E-02
       3.8425998E-02
       3.9866932E-02
       4.0747679E-02
       4.0441894E-02
       4.0726049E-02
       4.0459080E-02
       3.9966558E-02
       4.0880528E-02
       4.0315057E-02
       4.1513490E-02
       4.0375945E-02
       4.1386904E-02
       4.1034153E-02
       4.1858172E-02
       4.0728532E-02
       4.0879075E-02
       4.0792058E-02
       3.9930445E-02
       4.1265783E-02
       4.0411429E-02
       4.0285997E-02
       4.1029414E-02
       4.1103249E-02