# vtk DataFile Version 3.0
# Solution du M1 TR
ASCII
DATASET UNSTRUCTURED_GRID
POINTS   3280  float
0.0000000E+00  0.0000000E+00  0.3653060E-03
0.2000000E+01  0.0000000E+00  0.1960133E+01
0.2000000E+01  0.1000000E+01  0.1960134E+01
0.0000000E+00  0.1000000E+01  0.4074335E-03
0.1000000E+01  0.0000000E+00  0.9802658E+00
0.1000000E+01  0.1000000E+01  0.9802224E+00
0.1500000E+01  0.5000000E+00  0.1487421E+01
0.1500000E+01  0.0000000E+00  0.1470414E+01
0.1723284E+01  0.3570951E+00  0.1705802E+01
0.1500000E+01  0.2500000E+00  0.1487370E+01
0.1515103E+01  0.2763186E+00  0.1502209E+01
0.1594866E+01  0.2826386E+00  0.1580386E+01
0.1562500E+01  0.1875000E+00  0.1548289E+01
0.1534357E+01  0.1819434E+00  0.1520491E+01
0.1561083E+01  0.3343258E+00  0.1547286E+01
0.1750000E+01  0.0000000E+00  0.1715264E+01
0.1503267E+01  0.1622339E+00  0.1489666E+01
0.1514910E+01  0.2261192E+00  0.1501923E+01
0.1610795E+01  0.1290247E+00  0.1592424E+01
0.1539062E+01  0.1536458E+00  0.1524233E+01
0.1510772E+01  0.1982718E+00  0.1497643E+01
0.1541862E+01  0.2179813E+00  0.1528288E+01
0.1475030E+01  0.2178147E+00  0.1462814E+01
0.1539206E+01  0.2578835E+00  0.1525811E+01
0.1521085E+01  0.2465697E+00  0.1508029E+01
0.1496499E+01  0.2146241E+00  0.1483820E+01
0.1481433E+01  0.1870688E+00  0.1468725E+01
0.1586261E+01  0.1960616E+00  0.1571542E+01
0.1460896E+01  0.2899333E+00  0.1449088E+01
0.1542195E+01  0.2867649E+00  0.1528767E+01
0.1486080E+01  0.2754813E+00  0.1473764E+01
0.1536278E+01  0.3247610E+00  0.1522975E+01
0.1510131E+01  0.3295675E+00  0.1497349E+01
0.1455545E+01  0.2514402E+00  0.1443812E+01
0.1610995E+01  0.1909452E+00  0.1595846E+01
0.1564462E+01  0.2395252E+00  0.1550524E+01
0.1571524E+01  0.3026484E+00  0.1557515E+01
0.1613657E+01  0.2555806E+00  0.1598787E+01
0.1633998E+01  0.2714643E+00  0.1618720E+01
0.1534973E+01  0.3650914E+00  0.1521697E+01
0.1583157E+01  0.2286349E+00  0.1568779E+01
0.1586501E+01  0.1581416E+00  0.1570834E+01
0.1651985E+01  0.2274641E+00  0.1636270E+01
0.1619170E+01  0.2936434E+00  0.1604202E+01
0.1678889E+01  0.2641389E+00  0.1662612E+01
0.1642286E+01  0.2930521E+00  0.1626837E+01
0.1526415E+01  0.3446283E+00  0.1513309E+01
0.1662420E+01  0.3044259E+00  0.1646532E+01
0.1636786E+01  0.2469276E+00  0.1621428E+01
0.1588953E+01  0.3366240E+00  0.1574598E+01
0.1616427E+01  0.3314099E+00  0.1601519E+01
0.1598305E+01  0.3102698E+00  0.1583761E+01
0.1655410E+01  0.2614708E+00  0.1639669E+01
0.1487553E+01  0.3072167E+00  0.1475219E+01
0.1520126E+01  0.3036443E+00  0.1507144E+01
0.1477894E+01  0.2544664E+00  0.1465725E+01
0.1567847E+01  0.2133479E+00  0.1553702E+01
0.1663947E+01  0.3299725E+00  0.1648043E+01
0.1567022E+01  0.2696000E+00  0.1553091E+01
0.1678598E+01  0.3509559E+00  0.1662348E+01
0.1611933E+01  0.3827205E+00  0.1597114E+01
0.1640491E+01  0.3197373E+00  0.1625086E+01
0.1588015E+01  0.2526666E+00  0.1573642E+01
0.1708471E+01  0.3144917E+00  0.1691400E+01
0.1606944E+01  0.3564315E+00  0.1592226E+01
0.1604614E+01  0.2314093E+00  0.1589837E+01
0.1643491E+01  0.3631133E+00  0.1628020E+01
0.2000000E+01  0.5000000E+00  0.1960156E+01
0.1494727E+01  0.3621796E+00  0.1482254E+01
0.1701807E+01  0.3477237E+00  0.1684934E+01
0.1572156E+01  0.3701847E+00  0.1558137E+01
0.1688392E+01  0.3285111E+00  0.1671905E+01
0.1695932E+01  0.3904821E+00  0.1679247E+01
0.1636337E+01  0.3418163E+00  0.1621021E+01
0.1505941E+01  0.9448485E-01  0.1482361E+01
0.1423727E+01  0.1910920E+00  0.1412209E+01
0.1481447E+01  0.3359634E+00  0.1469238E+01
0.1441613E+01  0.3726133E+00  0.1430198E+01
0.1466699E+01  0.3599060E+00  0.1454784E+01
0.1476682E+01  0.4107296E+00  0.1464569E+01
0.1434448E+01  0.3273535E+00  0.1423175E+01
0.1464523E+01  0.3867258E+00  0.1452652E+01
0.1456903E+01  0.3373583E+00  0.1445183E+01
0.1454188E+01  0.3132491E+00  0.1442521E+01
0.1424069E+01  0.2919612E+00  0.1412999E+01
0.1490969E+01  0.3884111E+00  0.1478570E+01
0.1428051E+01  0.4202828E+00  0.1416906E+01
0.1513790E+01  0.3782958E+00  0.1500936E+01
0.1547789E+01  0.4092466E+00  0.1534258E+01
0.1535154E+01  0.3889763E+00  0.1521875E+01
0.1512699E+01  0.4170463E+00  0.1499867E+01
0.1441554E+01  0.3983607E+00  0.1430141E+01
0.1395941E+01  0.3853832E+00  0.1385436E+01
0.1420578E+01  0.3854393E+00  0.1409582E+01
0.1408336E+01  0.3518173E+00  0.1397584E+01
0.1549967E+01  0.3074339E+00  0.1536390E+01
0.1651639E+01  0.4114272E+00  0.1636004E+01
0.1668616E+01  0.3788978E+00  0.1652601E+01
0.1674624E+01  0.4027285E+00  0.1658489E+01
0.1706988E+01  0.4343785E+00  0.1690045E+01
0.1673984E+01  0.4357547E+00  0.1657854E+01
0.1695270E+01  0.4139894E+00  0.1678646E+01
0.1737273E+01  0.4034108E+00  0.1719321E+01
0.1645630E+01  0.3875965E+00  0.1630121E+01
0.1625874E+01  0.4052508E+00  0.1610774E+01
0.1627808E+01  0.4540126E+00  0.1612672E+01
0.1587158E+01  0.4136289E+00  0.1572841E+01
0.1633718E+01  0.4293591E+00  0.1618461E+01
0.1651607E+01  0.4466828E+00  0.1635977E+01
0.1605650E+01  0.4356658E+00  0.1590962E+01
0.1682168E+01  0.4808869E+00  0.1665824E+01
0.1671711E+01  0.4594749E+00  0.1655643E+01
0.1698428E+01  0.4596870E+00  0.1681727E+01
0.1646221E+01  0.4851828E+00  0.1630700E+01
0.1607747E+01  0.4151289E+00  0.1593016E+01
0.1584205E+01  0.4841185E+00  0.1569946E+01
0.1747573E+01  0.4622079E+00  0.1729305E+01
0.1568396E+01  0.4481495E+00  0.1554453E+01
0.1601760E+01  0.4629165E+00  0.1587151E+01
0.1723356E+01  0.4540167E+00  0.1705944E+01
0.1732897E+01  0.4294241E+00  0.1715093E+01
0.1722218E+01  0.4972746E+00  0.1704804E+01
0.1715121E+01  0.4754441E+00  0.1697920E+01
0.1584567E+01  0.4345797E+00  0.1570302E+01
0.1563465E+01  0.4258523E+00  0.1549621E+01
0.1534166E+01  0.4440258E+00  0.1520906E+01
0.1615090E+01  0.4918227E+00  0.1600210E+01
0.1717469E+01  0.4134541E+00  0.1700216E+01
0.1718488E+01  0.3909170E+00  0.1701136E+01
0.1741353E+01  0.3769080E+00  0.1723190E+01
0.1781199E+01  0.4241746E+00  0.1761202E+01
0.2000000E+01  0.2500000E+00  0.1960140E+01
0.1756308E+01  0.4199875E+00  0.1737629E+01
0.1762447E+01  0.3937207E+00  0.1743444E+01
0.1765097E+01  0.4438197E+00  0.1746013E+01
0.1807974E+01  0.4625425E+00  0.1785745E+01
0.1789176E+01  0.4471344E+00  0.1768592E+01
0.1514158E+01  0.1287364E+00  0.1498031E+01
0.1777674E+01  0.4803377E+00  0.1757995E+01
0.1811145E+01  0.4395021E+00  0.1789143E+01
0.1850404E+01  0.4566449E+00  0.1824321E+01
0.1748483E+01  0.3522599E+00  0.1729994E+01
0.1731235E+01  0.3304535E+00  0.1713421E+01
0.1777870E+01  0.3654441E+00  0.1758136E+01
0.1748149E+01  0.2821176E+00  0.1729689E+01
0.1732875E+01  0.3039003E+00  0.1714987E+01
0.1708314E+01  0.2807181E+00  0.1691290E+01
0.1767650E+01  0.3193756E+00  0.1748304E+01
0.1372661E+01  0.1704076E+00  0.1361688E+01
0.1411157E+01  0.2494459E+00  0.1400306E+01
0.1448000E+01  0.2246098E+00  0.1436330E+01
0.1360382E+01  0.2278583E+00  0.1350494E+01
0.1433680E+01  0.2431125E+00  0.1422373E+01
0.1388814E+01  0.2314916E+00  0.1378363E+01
0.1314549E+01  0.2124991E+00  0.1305539E+01
0.1404157E+01  0.2007613E+00  0.1393236E+01
0.1415035E+01  0.1072182E+00  0.1398315E+01
0.1520299E+01  0.1091515E+00  0.1501184E+01
0.1459010E+01  0.1690672E+00  0.1446350E+01
0.1436337E+01  0.2690050E+00  0.1425010E+01
0.1443480E+01  0.1263360E+00  0.1428763E+01
0.1625000E+01  0.0000000E+00  0.1592840E+01
0.1414954E+01  0.2197329E+00  0.1403926E+01
0.1335299E+01  0.2266424E+00  0.1325912E+01
0.1396801E+01  0.1612344E+00  0.1384975E+01
0.1792033E+01  0.3934232E+00  0.1771507E+01
0.1541310E+01  0.1264947E+00  0.1524443E+01
0.1483859E+01  0.1256971E+00  0.1467547E+01
0.1500341E+01  0.1139400E+00  0.1482407E+01
0.1498380E+01  0.1421255E+00  0.1483406E+01
0.1478242E+01  0.1468909E+00  0.1464225E+01
0.1453147E+01  0.1972183E+00  0.1441200E+01
0.1348833E+01  0.2067866E+00  0.1339084E+01
0.1368157E+01  0.2800764E+00  0.1358198E+01
0.1250000E+01  0.0000000E+00  0.1225310E+01
0.1496272E+01  0.2780308E-01  0.1467260E+01
0.1430228E+01  0.1622338E+00  0.1417698E+01
0.1544491E+01  0.1012427E+00  0.1523098E+01
0.1505524E+01  0.5428530E-01  0.1478100E+01
0.1576405E+01  0.1180891E+00  0.1557265E+01
0.1526885E+01  0.8834234E-01  0.1501957E+01
0.1558557E+01  0.6358195E-01  0.1531235E+01
0.1372206E+01  0.9428859E-01  0.1352400E+01
0.1414069E+01  0.8636887E-01  0.1392664E+01
0.1351230E+01  0.1581055E+00  0.1340312E+01
0.1371634E+01  0.2528708E+00  0.1361581E+01
0.1392978E+01  0.2694234E+00  0.1382515E+01
0.1321668E+01  0.2603105E+00  0.1312627E+01
0.1392566E+01  0.3027057E+00  0.1382126E+01
0.1345601E+01  0.2495441E+00  0.1336064E+01
0.1349996E+01  0.1827855E+00  0.1339887E+01
0.1475238E+01  0.9618066E-01  0.1453525E+01
0.1487372E+01  0.4556180E+00  0.1475045E+01
0.1432024E+01  0.3509343E+00  0.1420800E+01
0.1619231E+01  0.5383449E+00  0.1604263E+01
0.1532505E+01  0.4233173E+00  0.1519278E+01
0.1547332E+01  0.4788657E+00  0.1533810E+01
0.1627786E+01  0.4750493E+00  0.1612648E+01
0.1750658E+01  0.4911384E+00  0.1732278E+01
0.1783313E+01  0.5336292E+00  0.1763073E+01
0.1744147E+01  0.5299352E+00  0.1725893E+01
0.1772978E+01  0.5077787E+00  0.1753402E+01
0.1739682E+01  0.5092411E+00  0.1721610E+01
0.1715917E+01  0.5251974E+00  0.1698654E+01
0.1809547E+01  0.4999146E+00  0.1787128E+01
0.1486188E+01  0.5335558E+00  0.1473884E+01
0.1695320E+01  0.5058771E+00  0.1678670E+01
0.1793562E+01  0.5145404E+00  0.1772495E+01
0.1827482E+01  0.5355643E+00  0.1803533E+01
0.1805457E+01  0.5332234E+00  0.1783542E+01
0.1812320E+01  0.5734372E+00  0.1790122E+01
0.1794794E+01  0.5557356E+00  0.1773857E+01
0.1637325E+01  0.5533192E+00  0.1621981E+01
0.1761146E+01  0.5591762E+00  0.1742139E+01
0.1789115E+01  0.5788851E+00  0.1768477E+01
0.1693317E+01  0.6123782E+00  0.1676727E+01
0.1522396E+01  0.5359490E+00  0.1509371E+01
0.1814654E+01  0.6254783E+00  0.1792012E+01
0.1726166E+01  0.5505978E+00  0.1708527E+01
0.1691322E+01  0.5307786E+00  0.1674774E+01
0.1516987E+01  0.5143680E+00  0.1504070E+01
0.1661909E+01  0.5147686E+00  0.1646036E+01
0.1761865E+01  0.6508066E+00  0.1742690E+01
0.1692174E+01  0.5698207E+00  0.1675602E+01
0.1780214E+01  0.6037461E+00  0.1760255E+01
[...]
POINT_DATA    3280
SCALARS hauteur float
LOOKUP_TABLE DEFAULT
       3.6530596E-04
       1.0966192E-07
       4.3803033E-07
       4.0743351E-04
       1.9921471E-04
       1.5586712E-04
       1.7321524E-02
       3.1416621E-04
       1.6869501E-02
       1.7269950E-02
       1.7307336E-02
       1.7310951E-02
       1.6934987E-02
       1.6719152E-02
       1.7320360E-02
       1.4791015E-04
       1.6364018E-02
       1.7210536E-02
       1.3737080E-02
       1.5849129E-02
       1.6985784E-02
       1.7160672E-02
       1.7186226E-02
       1.7286599E-02
       1.7263804E-02
       1.7150786E-02
       1.6822214E-02
       1.6899638E-02
       1.7312641E-02
       1.7313481E-02
       1.7307381E-02
       1.7320675E-02
       1.7320860E-02
       1.7281067E-02
       1.6964142E-02
       1.7247053E-02
       1.7317740E-02
       1.7294879E-02
       1.7293004E-02
       1.7321183E-02
       1.7179051E-02
       1.5956860E-02
       1.7214833E-02
       1.7308144E-02
       1.7189417E-02
       1.7287093E-02
       1.7321221E-02
       1.7249474E-02
       1.7267979E-02
       1.7318909E-02
       1.7312830E-02
       1.7316533E-02
       1.7256123E-02
       1.7318237E-02
       1.7318684E-02
       1.7291178E-02
       1.7108004E-02
       1.7263715E-02
       1.7304309E-02
       1.7210260E-02
       1.7311834E-02
       1.7296018E-02
       1.7281273E-02
       1.6984791E-02
       1.7314037E-02
       1.7208405E-02
       1.7289290E-02
       2.2587540E-05
       1.7321396E-02
       1.7050372E-02
       1.7320022E-02
       1.7167936E-02
       1.7120722E-02
       1.7301800E-02
       6.4386732E-03
       1.6860841E-02
       1.7320904E-02
       1.7321502E-02
       1.7321418E-02
       1.7321526E-02
       1.7320721E-02
       1.7321516E-02
       1.7321092E-02
       1.7319455E-02
       1.7316564E-02
       1.7321501E-02
       1.7321534E-02
       1.7321436E-02
       1.7321319E-02
       1.7321299E-02
       1.7321496E-02
       1.7321529E-02
       1.7321504E-02
       1.7321513E-02
       1.7321345E-02
       1.7319478E-02
       1.7288347E-02
       1.7246134E-02
       1.7245727E-02
       1.7082952E-02
       1.7237999E-02
       1.7168889E-02
       1.6678158E-02
       1.7293759E-02
       1.7309172E-02
       1.7312459E-02
       1.7319908E-02
       1.7309302E-02
       1.7291990E-02
       1.7317813E-02
       1.7187095E-02
       1.7254994E-02
       1.7154952E-02
       1.7293276E-02
       1.7316665E-02
       1.7319515E-02
       1.6567607E-02
       1.7320827E-02
       1.7318640E-02
       1.6940580E-02
       1.6738024E-02
       1.6915555E-02
       1.6987834E-02
       1.7320310E-02
       1.7321155E-02
       1.7321444E-02
       1.7314084E-02
       1.6982454E-02
       1.6902572E-02
       1.6547901E-02
       1.5508354E-02
       6.5154655E-06
       1.6330168E-02
       1.6128708E-02
       1.6100468E-02
       1.3810172E-02
       1.5080791E-02
       1.4054520E-02
       1.5756211E-02
       1.4099477E-02
       1.0801832E-02
       1.6364845E-02
       1.6695731E-02
       1.5704883E-02
       1.6386348E-02
       1.6653908E-02
       1.7028255E-02
       1.5889095E-02
       1.6388747E-02
       1.7278459E-02
       1.7192924E-02
       1.7228496E-02
       1.7271077E-02
       1.7232684E-02
       1.7193298E-02
       1.7068484E-02
       1.1486012E-02
       1.1189647E-02
       1.6423402E-02
       1.7304099E-02
       1.4056739E-02
       2.3183912E-04
       1.7177137E-02
       1.7229575E-02
       1.6016231E-02
       1.5195376E-02
       1.3856407E-02
       1.3266203E-02
       1.1973383E-02
       1.4893735E-02
       1.5449752E-02
       1.7018973E-02
       1.7137897E-02
       1.7312886E-02
       2.2700223E-04
       8.1392660E-04
       1.5979290E-02
       9.3940546E-03
       2.5860673E-03
       1.2283702E-02
       5.5083120E-03
       3.7461024E-03
       7.5469686E-03
       6.7827673E-03
       1.6016176E-02
       1.7288461E-02
       1.7303665E-02
       1.7304794E-02
       1.7318057E-02
       1.7285245E-02
       1.6801306E-02
       7.6938654E-03
       1.7321531E-02
       1.7321402E-02
       1.7308998E-02
       1.7321455E-02
       1.7321311E-02
       1.7309552E-02
       1.6516694E-02
       1.5307549E-02
       1.6512675E-02
       1.5765768E-02
       1.6605853E-02
       1.6941185E-02
       1.3651654E-02
       1.7321520E-02
       1.7142947E-02
       1.4684638E-02
       1.2479107E-02
       1.4073533E-02
       1.3928035E-02
       1.4839934E-02
       1.7293288E-02
       1.6098170E-02
       1.5024775E-02
       1.7164216E-02
       1.7321424E-02
       1.3531010E-02
       1.6768502E-02
       1.7166126E-02
       1.7321487E-02
       1.7254113E-02
       1.5944156E-02
       1.7158702E-02
       1.5527188E-02
       1.7320786E-02
       1.7239996E-02
       1.6386117E-02
       1.7319252E-02
       1.7208003E-02
       1.6655585E-02
       1.6432529E-02
       1.6866762E-02
       1.6795088E-02
       1.2473815E-02
       1.3246995E-02
       1.3146682E-05
       1.5795905E-02
       9.8115638E-03
       1.5149403E-02
       1.6062272E-02
       1.7160001E-02
       1.6773455E-02
       1.4411057E-02
       1.2195873E-02
       1.2376024E-02
       1.3765302E-02
       1.4517593E-02
       1.4475618E-02
       1.5648080E-02
       1.5586255E-02
       1.7045083E-02
       1.4301138E-02
       1.5062468E-02
       1.6366696E-02
       1.4792076E-02
       4.8322257E-03
       6.8484222E-03
       3.7497487E-03
       4.7754599E-04
       1.0514170E-03
       1.3695816E-03
       9.0804081E-03
       1.0439775E-02
       2.3098702E-03
       1.5187274E-02
       4.6510071E-03
       1.3692937E-02
       2.4945806E-03
       2.7028546E-04
       1.0847845E-02
       1.6427509E-02
       1.5495913E-02
       1.6184323E-02
       3.9266975E-03
       1.2518822E-02
       1.4512096E-02
       1.5246284E-02
       1.6388305E-02
       1.5829572E-02
       1.3462082E-02
       1.6711760E-02
       6.2268722E-03
       2.0674728E-04
       1.4938881E-02
       3.5941519E-03
       1.4085697E-02
       1.9616359E-03
       1.7315683E-02
       1.7320040E-02
       1.7320832E-02
       1.7321429E-02
       1.7320775E-02
       1.7321527E-02
       1.7321513E-02
       1.7321534E-02
       1.7321476E-02
       1.7321478E-02
       1.7317927E-02
       1.7321309E-02
       1.7288342E-02
       1.7321304E-02
       1.7320770E-02
       1.4547367E-02
       1.2808700E-02
       1.1696276E-02
       1.6024190E-02
       1.7254395E-02
       1.1731680E-02
       1.4213285E-02
       1.7298103E-02
       1.7318336E-02
       1.3167422E-02
       1.7018218E-02
       1.3871214E-02
       1.6844066E-02
       1.5948118E-02
       1.6430752E-02
       1.6565609E-02
       1.4003038E-02
       1.0086868E-02
       9.9184895E-06
       1.4847766E-02
       6.9613200E-03
       1.5960205E-02
       1.5084497E-02
       1.7265678E-02
       6.7741097E-05
       1.2460754E-02
       1.5712825E-02
       1.4939381E-02
       1.7130331E-02
       1.6945368E-02
       2.1976243E-04
       1.7313812E-02
       6.5139240E-03
       1.6495999E-02
       1.7320826E-02
       5.6621638E-03
       1.8590623E-03
       1.7072767E-02
       1.6975398E-02
       1.7195660E-02
       1.7210547E-02
       1.4035285E-02
       1.7190962E-02
       1.6937192E-02
       1.7195491E-02
       1.7270972E-02
       1.7005481E-02
       1.5642112E-02
       1.6592336E-02
       1.7019077E-02
       1.2090028E-03
       1.2350768E-02
       1.1877061E-02
       1.3807551E-02
       1.9141233E-03
       8.4723759E-04
       2.0436654E-04
       4.8739866E-04
       3.1478940E-04
       1.6857116E-02
       1.7004963E-02
       1.0723854E-02
       7.7154127E-03
       1.0904275E-02
       4.0413186E-03
       2.6752340E-04
       3.0565728E-03
       2.2391595E-04
       3.7181989E-04
       4.1644918E-04
       1.1244413E-03
       2.2817933E-03
       1.7304804E-02
       1.7321533E-02
       1.7319159E-02
       1.7318730E-02
       1.7320807E-02
       1.7310147E-02
       1.7317334E-02
       1.7317299E-02
       1.7319324E-02
       1.7321351E-02
       1.7308978E-02
       1.7320639E-02
       1.7320577E-02
       1.7320490E-02
       1.7310306E-02
       1.7317305E-02
       1.7304271E-02
       1.7275224E-02
       1.7272977E-02
       1.7090194E-02
       1.7165744E-02
       1.7260790E-02
       1.7223580E-02
       1.7273209E-02
       1.6779178E-02
       1.5203137E-02
       1.6957753E-02
       1.6646596E-02
       1.5631663E-02
       1.7321285E-02
       1.7321501E-02
       1.7321356E-02
       1.7321477E-02
       1.7321516E-02
       1.7321523E-02
       1.7321533E-02
       1.7321523E-02
       1.7321535E-02
       1.7321533E-02
       1.7321535E-02
       1.7321512E-02
       1.7321438E-02
       1.7321533E-02
       1.7321535E-02
       1.7321535E-02
       1.7321119E-02
       1.7321504E-02
       1.7321531E-02
       1.7321496E-02
       1.7321324E-02
       1.7321402E-02
       1.7321159E-02
       1.7319780E-02
       1.7321535E-02
       1.7321527E-02
       1.7321532E-02
       1.7321527E-02
       1.7321511E-02
       1.7321536E-02
       1.7321509E-02
       1.7321536E-02
       1.7321429E-02
       1.7321536E-02
       1.7321536E-02
       1.7321524E-02
       1.7321535E-02
       1.7321532E-02
       1.7321535E-02
       1.7321530E-02
       1.7321211E-02
       1.7320784E-02
       1.7321536E-02
       1.7321536E-02
       1.7321535E-02
       1.7321536E-02
       1.7321536E-02
       1.7321536E-02
       1.7321536E-02
       1.7321358E-02
       1.7321527E-02
       1.7321536E-02
       1.7321536E-02
       1.7321536E-02
       1.7321536E-02
       1.7321506E-02
       1.7321532E-02
       1.7321535E-02
       1.7321536E-02
       1.7321536E-02
       1.7321536E-02
       1.7321536E-02
       1.7321536E-02
       1.7321536E-02
       1.7321535E-02
       1.7321536E-02
       1.7321536E-02
       1.7321536E-02
       1.7321533E-02
       1.7321527E-02
       1.7321533E-02
       1.7321535E-02
       1.7321533E-02
       1.7321536E-02
       1.7321536E-02
       1.7321536E-02
       1.7321536E-02
       1.7321536E-02
       1.7321536E-02
       1.7321536E-02
       1.7321536E-02
       1.7321536E-02
       1.7321533E-02
       1.7321535E-02
       1.7321535E-02
       1.7321536E-02
       1.7321403E-02
       1.7321534E-02
       1.7321535E-02
       1.7321536E-02
       1.7321536E-02
       1.7321535E-02
       1.7321536E-02
       1.7321535E-02
       1.7321536E-02
       1.7321536E-02
       1.7321536E-02
       1.7321513E-02
       1.7321535E-02
       1.7321533E-02
       1.7321536E-02
       1.7321536E-02
       1.7321519E-02
       1.7321075E-02
       1.7321533E-02
       1.7321487E-02
       1.7321471E-02
       1.7321432E-02
       1.7321535E-02
       1.7321444E-02
       1.7321521E-02
       1.7320184E-02
       1.7321535E-02
       1.7320979E-02
       1.7321529E-02
       1.7321534E-02
       1.7321535E-02
       1.7321536E-02
       1.7321536E-02
       1.7321536E-02
       1.7321536E-02
       1.7321536E-02
       1.7321536E-02
       1.7321536E-02
       1.7321536E-02
       1.7321536E-02
       1.7321532E-02
       1.3428250E-02
       1.0922718E-02
       5.1410816E-03
       8.8262363E-03
       5.8574373E-03
       8.0126476E-03
       7.6385289E-03
       9.4341995E-03
       9.8553026E-03
       8.8748612E-03
       1.0609266E-02
       3.1540198E-06
       3.0949349E-04
       6.3722171E-03
       6.8674390E-03
       4.3712740E-03
       1.7164874E-03
       7.2162366E-03
       8.3203282E-04
       6.8399596E-04
       4.8102616E-03
       2.3480217E-03
       7.6092842E-04
       2.0376311E-03
       1.8016521E-05
       1.7321518E-02
       1.7263445E-02
       1.7204032E-02
       1.7300459E-02
       1.7263159E-02
       1.7279037E-02
       1.7305170E-02
       1.7321360E-02
       1.7320097E-02
       1.7321137E-02
       1.7321433E-02
       1.7320377E-02
       1.7321123E-02
       1.7317415E-02
       1.7321223E-02
       1.7321454E-02
       1.7321316E-02
       1.7321513E-02
       1.7321529E-02
       1.7321503E-02
       1.7321405E-02
       1.7320168E-02
       1.7321088E-02
       1.7319475E-02
       1.7320823E-02
       1.7320043E-02
       1.7320172E-02
       1.7306773E-02
       1.7316234E-02
       1.7317697E-02
       1.7259968E-02
       1.7308418E-02
       1.7300952E-02
       1.7154091E-02
       1.7305712E-02
       1.7258294E-02
       1.7315840E-02
       1.7319289E-02
       1.6904450E-02
       1.7142693E-02
       1.7129455E-02
       1.7321129E-02
       1.7313297E-02
       1.7314707E-02
       1.7259990E-02
       1.7321073E-02
       1.7298441E-02
       1.7267793E-02
       1.7273310E-02
       1.7173524E-02
       1.7319661E-02
       1.7321032E-02
       1.7321513E-02
       1.7321441E-02
       1.7321409E-02
       1.7321458E-02
       1.7321434E-02
       1.7321532E-02
       1.5858703E-02
       1.6593213E-02
       1.6952727E-02
       1.7076012E-02
       1.6973492E-02
       1.6410102E-02
       1.1934194E-02
       4.2927248E-03
       1.1758848E-02
       8.5031792E-03
       1.7084315E-02
       1.7297247E-02
       1.6177875E-02
       1.5507351E-02
       1.7163993E-02
       1.7112575E-02
       1.6960373E-02
       1.6111768E-02
       1.6556586E-02
       1.6576661E-02
       1.6048097E-02
       1.6532990E-02
       1.3666369E-02
       1.5111341E-02
       1.6197580E-02
       1.5866843E-02
       1.3686203E-02
       1.5030355E-02
       1.5210762E-02
       1.2576752E-02
       9.3551072E-03
       1.4070669E-02
       1.3200291E-02
       1.4109981E-02
       1.4476121E-02
       1.6614780E-02
       1.3054631E-02
       1.4570541E-02
       1.6239926E-03
       4.7745337E-04
       1.3142319E-03
       7.1797247E-04
       1.7183840E-02
       1.2168104E-02
       1.1036630E-02
       5.7670360E-04
       1.4581572E-03
       1.4082085E-03
       4.8211803E-04
       8.4944966E-04
       4.8060043E-04
       1.7056344E-02
       1.6441016E-02
       1.6784470E-02
       1.6251931E-02
       1.6940788E-02
       1.4959934E-02
       1.7114924E-02
       1.4992188E-02
       1.7219945E-02
       1.6992834E-02
       1.6082906E-02
       1.6376587E-02
       6.4743217E-03
       1.7060585E-02
       1.2736297E-02
       1.2713396E-02
       1.9964243E-04
       1.1063817E-02
       1.7286178E-02
       3.0213671E-03
       2.5465010E-03
       3.9167001E-03
       4.0894527E-03
       1.7024256E-02
       1.7224992E-02
       1.5422865E-02
       1.4543124E-02
       1.7321535E-02
       1.7321467E-02
       1.7320953E-02
       1.7321536E-02
       1.7321536E-02
       1.7321536E-02
       1.7321536E-02
       1.7321536E-02
       1.7321536E-02
       1.7321536E-02
       1.7321271E-02
       1.7321153E-02
       1.7320774E-02
       1.7321395E-02
       1.7321511E-02
       1.7321458E-02
       1.7321510E-02
       1.7321283E-02
       1.7300207E-02
       1.7316844E-02
       1.7307234E-02
       1.7320666E-02
       1.7321536E-02
       1.7321536E-02
       1.7321536E-02
       1.7321536E-02
       1.7321536E-02
       1.7321534E-02
       1.7321536E-02
       1.0052480E-02
       3.0532805E-04
       3.5918603E-03
       8.8202668E-06
       1.7310046E-02
       1.7316623E-02
       1.7288617E-02
       1.7309677E-02
       1.7312912E-02
       1.7321510E-02
       1.7321535E-02
       1.7321533E-02
       1.7317091E-02
       1.7310619E-02
       1.7184381E-02
       1.7321429E-02
       1.7321103E-02
       1.6218215E-02
       1.7321532E-02
       1.7321536E-02
       6.5652700E-03
       2.6983249E-03
       8.7181385E-03
       4.8131828E-03
       5.9476326E-03
       1.1231230E-02
       5.0461124E-04
       5.6428116E-03
       5.5762482E-05
       5.2150483E-04
       2.6415350E-04
       9.9807344E-04
       3.9565130E-04
       2.2455316E-03
       8.8476030E-06
       1.3707524E-02
       1.4710382E-02
       8.4809860E-03
       1.0989948E-02
       1.7251260E-02
       1.7270607E-02
       1.7302293E-02
       1.7279423E-02
       1.7313530E-02
       1.7316817E-02
       1.7319383E-02
       1.5224328E-02
       1.5172168E-02
       1.6718443E-02
       1.6004707E-02
       1.1568155E-02
       1.5148641E-02
       1.5993137E-02
       8.9197762E-03
       1.5988291E-02
       1.6424581E-02
       1.6724701E-02
       1.5703125E-02
       1.7051032E-02
       1.6093723E-02
       1.3615108E-04
       1.6673794E-02
       1.4640136E-02
       1.6851975E-02
       1.4608950E-02
       1.3354322E-02
       1.5055858E-02
       9.6923938E-03
       1.3249989E-02
       1.2662862E-02
       1.1437954E-02
       1.1962835E-02
       6.5286853E-03
       1.7374166E-04
       1.4977793E-02
       1.4952805E-02
       1.6256736E-02
       1.5303297E-02
       1.5529938E-02
       1.4873169E-02
       1.6312815E-02
       1.5855920E-02
       1.5343718E-02
       1.6816854E-02
       1.1965262E-02
       4.0682306E-04
       7.7085156E-04
       1.3433714E-02
       8.1236192E-03
       2.6164396E-03
       4.4455944E-03
       1.8752954E-03
       7.3184605E-03
       1.0120140E-02
       7.6731354E-03
       1.7307964E-02
       1.7321536E-02
       1.7321536E-02
       1.7321536E-02
       1.7321536E-02
       1.7321536E-02
       1.7321536E-02
       1.7321536E-02
       1.7321536E-02
       1.7321534E-02
       1.7321536E-02
       1.7319585E-02
       1.7321533E-02
       1.7183724E-02
       1.7300344E-02
       1.7321381E-02
       1.7321321E-02
       1.7321472E-02
       1.7321096E-02
       1.7319441E-02
       1.7321513E-02
       1.6966779E-02
       1.7321516E-02
       1.7321529E-02
       1.7290233E-02
       1.7231843E-02
       1.7321535E-02
       1.7321535E-02
       1.7321497E-02
       1.7321532E-02
       1.7321526E-02
       1.6627591E-02
       1.7321536E-02
       1.7316774E-02
       1.7321535E-02
       1.7259772E-02
       1.7321529E-02
       1.7321536E-02
       1.7321533E-02
       1.7321533E-02
       1.7321535E-02
       1.7321480E-02
       1.7321536E-02
       1.7318371E-02
       1.7321536E-02
       1.7313566E-02
       1.7313815E-02
       1.7321536E-02
       1.7321536E-02
       1.7320405E-02
       1.7299200E-02
       1.9599010E-04
       1.7321535E-02
       2.9060296E-04
       1.7321536E-02
       1.7318809E-02
       1.7321536E-02
       1.7259888E-02
       1.7148536E-02
       1.7321536E-02
       1.7321536E-02
       1.7321536E-02
       1.7321536E-02
       1.7321536E-02
       1.7321536E-02
       1.7304199E-02
       1.7305331E-02
       1.7312304E-02
       1.7262128E-02
       1.7190000E-02
       1.7321524E-02
       1.7235992E-02
       1.7315036E-02
       1.7179053E-02
       1.7313915E-02
       1.7271272E-02
       1.7321536E-02
       1.7320661E-02
       1.7321532E-02
       1.7317161E-02
       1.7321522E-02
       1.7318299E-02
       1.7310768E-02
       1.7280461E-02
       1.7255961E-02
       1.7310176E-02
       1.7321016E-02
       1.7319212E-02
       1.7319500E-02
       1.7319669E-02
       1.7321252E-02
       1.7313123E-02
       1.7321439E-02
       1.7292746E-02
       1.7302927E-02
       1.7313473E-02
       1.7292002E-02
       1.7317653E-02
       1.7320629E-02
       1.7320497E-02
       1.7317208E-02
       1.7300382E-02
       1.7277445E-02
       1.7258717E-02
       1.7137369E-02
       1.7318410E-02
       1.7309934E-02
       1.7321375E-02
       1.7321536E-02
       1.7321536E-02
       1.7321533E-02
       1.7321530E-02
       1.7321536E-02
       1.7321536E-02
       1.7321536E-02
       1.7321536E-02
       1.7321536E-02
       1.7321536E-02
       1.7321536E-02
       1.7321536E-02
       1.7321536E-02
       1.7321536E-02
       1.7321536E-02
       1.7321536E-02
       1.7321536E-02
       1.7321535E-02
       1.7321536E-02
       1.7321528E-02
       1.7321536E-02
       1.7321534E-02
       1.7321499E-02
       1.7321536E-02
       1.7321536E-02