# vtk DataFile Version 3.0
# Solution du M1 TR
ASCII
DATASET UNSTRUCTURED_GRID
POINTS   3280  float
0.0000000E+00  0.0000000E+00  0.2301090E-01
0.2000000E+01  0.0000000E+00  0.1960248E+01
0.2000000E+01  0.1000000E+01  0.1960404E+01
0.0000000E+00  0.1000000E+01  0.2320272E-01
0.1000000E+01  0.0000000E+00  0.9921060E+00
0.1000000E+01  0.1000000E+01  0.9919271E+00
0.1500000E+01  0.5000000E+00  0.1496684E+01
0.1500000E+01  0.0000000E+00  0.1473589E+01
0.1723284E+01  0.3570951E+00  0.1701951E+01
0.1500000E+01  0.2500000E+00  0.1495346E+01
0.1515103E+01  0.2763186E+00  0.1509974E+01
0.1594866E+01  0.2826386E+00  0.1584808E+01
0.1562500E+01  0.1875000E+00  0.1553305E+01
0.1534357E+01  0.1819434E+00  0.1526103E+01
0.1561083E+01  0.3343258E+00  0.1553455E+01
0.1750000E+01  0.0000000E+00  0.1715443E+01
0.1503267E+01  0.1622339E+00  0.1495581E+01
0.1514910E+01  0.2261192E+00  0.1509118E+01
0.1610795E+01  0.1290247E+00  0.1593256E+01
0.1539062E+01  0.1536458E+00  0.1528548E+01
0.1510772E+01  0.1982718E+00  0.1504298E+01
0.1541862E+01  0.2179813E+00  0.1534501E+01
0.1475030E+01  0.2178147E+00  0.1471094E+01
0.1539206E+01  0.2578835E+00  0.1532454E+01
0.1521085E+01  0.2465697E+00  0.1515172E+01
0.1496499E+01  0.2146241E+00  0.1491326E+01
0.1481433E+01  0.1870688E+00  0.1475815E+01
0.1586261E+01  0.1960616E+00  0.1575385E+01
0.1460896E+01  0.2899333E+00  0.1458668E+01
0.1542195E+01  0.2867649E+00  0.1535468E+01
0.1486080E+01  0.2754813E+00  0.1482428E+01
0.1536278E+01  0.3247610E+00  0.1530220E+01
0.1510131E+01  0.3295675E+00  0.1505614E+01
0.1455545E+01  0.2514402E+00  0.1453178E+01
0.1610995E+01  0.1909452E+00  0.1598552E+01
0.1564462E+01  0.2395252E+00  0.1556154E+01
0.1571524E+01  0.3026484E+00  0.1562994E+01
0.1613657E+01  0.2555806E+00  0.1602227E+01
0.1633998E+01  0.2714643E+00  0.1620856E+01
0.1534973E+01  0.3650914E+00  0.1528521E+01
0.1583157E+01  0.2286349E+00  0.1573315E+01
0.1586501E+01  0.1581416E+00  0.1573920E+01
0.1651985E+01  0.2274641E+00  0.1637358E+01
0.1619170E+01  0.2936434E+00  0.1607172E+01
0.1678889E+01  0.2641389E+00  0.1661732E+01
0.1642286E+01  0.2930521E+00  0.1628269E+01
0.1526415E+01  0.3446283E+00  0.1520738E+01
0.1662420E+01  0.3044259E+00  0.1646655E+01
0.1636786E+01  0.2469276E+00  0.1623631E+01
0.1588953E+01  0.3366240E+00  0.1579395E+01
0.1616427E+01  0.3314099E+00  0.1604786E+01
0.1598305E+01  0.3102698E+00  0.1587930E+01
0.1655410E+01  0.2614708E+00  0.1640336E+01
0.1487553E+01  0.3072167E+00  0.1484055E+01
0.1520126E+01  0.3036443E+00  0.1514858E+01
0.1477894E+01  0.2544664E+00  0.1474580E+01
0.1567847E+01  0.2133479E+00  0.1558688E+01
0.1663947E+01  0.3299725E+00  0.1648533E+01
0.1567022E+01  0.2696000E+00  0.1558801E+01
0.1678598E+01  0.3509559E+00  0.1661541E+01
0.1611933E+01  0.3827205E+00  0.1599901E+01
0.1640491E+01  0.3197373E+00  0.1626905E+01
0.1588015E+01  0.2526666E+00  0.1578293E+01
0.1708471E+01  0.3144917E+00  0.1688586E+01
0.1606944E+01  0.3564315E+00  0.1595714E+01
0.1604614E+01  0.2314093E+00  0.1593404E+01
0.1643491E+01  0.3631133E+00  0.1629392E+01
0.2000000E+01  0.5000000E+00  0.1960522E+01
0.1494727E+01  0.3621796E+00  0.1490801E+01
0.1701807E+01  0.3477237E+00  0.1682393E+01
0.1572156E+01  0.3701847E+00  0.1563455E+01
0.1688392E+01  0.3285111E+00  0.1670652E+01
0.1695932E+01  0.3904821E+00  0.1676940E+01
0.1636337E+01  0.3418163E+00  0.1623159E+01
0.1505941E+01  0.9448485E-01  0.1486149E+01
0.1423727E+01  0.1910920E+00  0.1420747E+01
0.1481447E+01  0.3359634E+00  0.1478455E+01
0.1441613E+01  0.3726133E+00  0.1440715E+01
0.1466699E+01  0.3599060E+00  0.1464445E+01
0.1476682E+01  0.4107296E+00  0.1474018E+01
0.1434448E+01  0.3273535E+00  0.1433879E+01
0.1464523E+01  0.3867258E+00  0.1462567E+01
0.1456903E+01  0.3373583E+00  0.1455270E+01
0.1454188E+01  0.3132491E+00  0.1452421E+01
0.1424069E+01  0.2919612E+00  0.1423466E+01
0.1490969E+01  0.3884111E+00  0.1487453E+01
0.1428051E+01  0.4202828E+00  0.1428164E+01
0.1513790E+01  0.3782958E+00  0.1508750E+01
0.1547789E+01  0.4092466E+00  0.1540717E+01
0.1535154E+01  0.3889763E+00  0.1528777E+01
0.1512699E+01  0.4170463E+00  0.1508058E+01
0.1441554E+01  0.3983607E+00  0.1440877E+01
0.1395941E+01  0.3853832E+00  0.1397592E+01
0.1420578E+01  0.3854393E+00  0.1420902E+01
0.1408336E+01  0.3518173E+00  0.1409120E+01
0.1549967E+01  0.3074339E+00  0.1543002E+01
0.1651639E+01  0.4114272E+00  0.1636593E+01
0.1668616E+01  0.3788978E+00  0.1652315E+01
0.1674624E+01  0.4027285E+00  0.1657831E+01
0.1706988E+01  0.4343785E+00  0.1686817E+01
0.1673984E+01  0.4357547E+00  0.1656760E+01
0.1695270E+01  0.4139894E+00  0.1676511E+01
0.1737273E+01  0.4034108E+00  0.1714049E+01
0.1645630E+01  0.3875965E+00  0.1631316E+01
0.1625874E+01  0.4052508E+00  0.1612940E+01
0.1627808E+01  0.4540126E+00  0.1615196E+01
0.1587158E+01  0.4136289E+00  0.1577325E+01
0.1633718E+01  0.4293591E+00  0.1620541E+01
0.1651607E+01  0.4466828E+00  0.1636685E+01
0.1605650E+01  0.4356658E+00  0.1594552E+01
0.1682168E+01  0.4808869E+00  0.1663446E+01
0.1671711E+01  0.4594749E+00  0.1654777E+01
0.1698428E+01  0.4596870E+00  0.1679047E+01
0.1646221E+01  0.4851828E+00  0.1631283E+01
0.1607747E+01  0.4151289E+00  0.1596327E+01
0.1584205E+01  0.4841185E+00  0.1574420E+01
0.1747573E+01  0.4622079E+00  0.1723143E+01
0.1568396E+01  0.4481495E+00  0.1559848E+01
0.1601760E+01  0.4629165E+00  0.1591121E+01
0.1723356E+01  0.4540167E+00  0.1701467E+01
0.1732897E+01  0.4294241E+00  0.1709799E+01
0.1722218E+01  0.4972746E+00  0.1699649E+01
0.1715121E+01  0.4754441E+00  0.1693561E+01
0.1584567E+01  0.4345797E+00  0.1575058E+01
0.1563465E+01  0.4258523E+00  0.1555559E+01
0.1534166E+01  0.4440258E+00  0.1528046E+01
0.1615090E+01  0.4918227E+00  0.1602974E+01
0.1717469E+01  0.4134541E+00  0.1696382E+01
0.1718488E+01  0.3909170E+00  0.1697062E+01
0.1741353E+01  0.3769080E+00  0.1717876E+01
0.1781199E+01  0.4241746E+00  0.1753608E+01
0.2000000E+01  0.2500000E+00  0.1960360E+01
0.1756308E+01  0.4199875E+00  0.1731251E+01
0.1762447E+01  0.3937207E+00  0.1736894E+01
0.1765097E+01  0.4438197E+00  0.1738899E+01
0.1807974E+01  0.4625425E+00  0.1776851E+01
0.1789176E+01  0.4471344E+00  0.1760254E+01
0.1514158E+01  0.1287364E+00  0.1502021E+01
0.1777674E+01  0.4803377E+00  0.1750208E+01
0.1811145E+01  0.4395021E+00  0.1780575E+01
0.1850404E+01  0.4566449E+00  0.1816306E+01
0.1748483E+01  0.3522599E+00  0.1724481E+01
0.1731235E+01  0.3304535E+00  0.1709132E+01
0.1777870E+01  0.3654441E+00  0.1751265E+01
0.1748149E+01  0.2821176E+00  0.1724245E+01
0.1732875E+01  0.3039003E+00  0.1710566E+01
0.1708314E+01  0.2807181E+00  0.1688683E+01
0.1767650E+01  0.3193756E+00  0.1742089E+01
0.1372661E+01  0.1704076E+00  0.1370282E+01
0.1411157E+01  0.2494459E+00  0.1410807E+01
0.1448000E+01  0.2246098E+00  0.1445417E+01
0.1360382E+01  0.2278583E+00  0.1361580E+01
0.1433680E+01  0.2431125E+00  0.1432268E+01
0.1388814E+01  0.2314916E+00  0.1388926E+01
0.1314549E+01  0.2124991E+00  0.1317236E+01
0.1404157E+01  0.2007613E+00  0.1402782E+01
0.1415035E+01  0.1072182E+00  0.1404377E+01
0.1520299E+01  0.1091515E+00  0.1504303E+01
0.1459010E+01  0.1690672E+00  0.1453447E+01
0.1436337E+01  0.2690050E+00  0.1435045E+01
0.1443480E+01  0.1263360E+00  0.1434795E+01
0.1625000E+01  0.0000000E+00  0.1593798E+01
0.1414954E+01  0.2197329E+00  0.1413614E+01
0.1335299E+01  0.2266424E+00  0.1337430E+01
0.1396801E+01  0.1612344E+00  0.1392689E+01
0.1792033E+01  0.3934232E+00  0.1763873E+01
0.1541310E+01  0.1264947E+00  0.1527766E+01
0.1483859E+01  0.1256971E+00  0.1472201E+01
0.1500341E+01  0.1139400E+00  0.1486296E+01
0.1498380E+01  0.1421255E+00  0.1488147E+01
0.1478242E+01  0.1468909E+00  0.1469960E+01
0.1453147E+01  0.1972183E+00  0.1449379E+01
0.1348833E+01  0.2067866E+00  0.1349912E+01
0.1368157E+01  0.2800764E+00  0.1370040E+01
0.1250000E+01  0.0000000E+00  0.1233576E+01
0.1496272E+01  0.2780308E-01  0.1470857E+01
0.1430228E+01  0.1622338E+00  0.1424794E+01
0.1544491E+01  0.1012427E+00  0.1525546E+01
0.1505524E+01  0.5428530E-01  0.1481871E+01
0.1576405E+01  0.1180891E+00  0.1559341E+01
0.1526885E+01  0.8834234E-01  0.1505083E+01
0.1558557E+01  0.6358195E-01  0.1533582E+01
0.1372206E+01  0.9428859E-01  0.1359726E+01
0.1414069E+01  0.8636887E-01  0.1399275E+01
0.1351230E+01  0.1581055E+00  0.1348893E+01
0.1371634E+01  0.2528708E+00  0.1373024E+01
0.1392978E+01  0.2694234E+00  0.1393652E+01
0.1321668E+01  0.2603105E+00  0.1325278E+01
0.1392566E+01  0.3027057E+00  0.1393655E+01
0.1345601E+01  0.2495441E+00  0.1347969E+01
0.1349996E+01  0.1827855E+00  0.1349657E+01
0.1475238E+01  0.9618066E-01  0.1458251E+01
0.1487372E+01  0.4556180E+00  0.1484452E+01
0.1432024E+01  0.3509343E+00  0.1431523E+01
0.1619231E+01  0.5383449E+00  0.1606013E+01
0.1532505E+01  0.4233173E+00  0.1526553E+01
0.1547332E+01  0.4788657E+00  0.1540458E+01
0.1627786E+01  0.4750493E+00  0.1614616E+01
0.1750658E+01  0.4911384E+00  0.1725720E+01
0.1783313E+01  0.5336292E+00  0.1754320E+01
0.1744147E+01  0.5299352E+00  0.1718810E+01
0.1772978E+01  0.5077787E+00  0.1745240E+01
0.1739682E+01  0.5092411E+00  0.1715066E+01
0.1715917E+01  0.5251974E+00  0.1693465E+01
0.1809547E+01  0.4999146E+00  0.1778022E+01
0.1486188E+01  0.5335558E+00  0.1483320E+01
0.1695320E+01  0.5058771E+00  0.1675375E+01
0.1793562E+01  0.5145404E+00  0.1763482E+01
0.1827482E+01  0.5355643E+00  0.1794639E+01
0.1805457E+01  0.5332234E+00  0.1774366E+01
0.1812320E+01  0.5734372E+00  0.1780970E+01
0.1794794E+01  0.5557356E+00  0.1764914E+01
0.1637325E+01  0.5533192E+00  0.1622403E+01
0.1761146E+01  0.5591762E+00  0.1734273E+01
0.1789115E+01  0.5788851E+00  0.1759548E+01
0.1693317E+01  0.6123782E+00  0.1673988E+01
0.1522396E+01  0.5359490E+00  0.1517168E+01
0.1814654E+01  0.6254783E+00  0.1783144E+01
0.1726166E+01  0.5505978E+00  0.1702344E+01
0.1691322E+01  0.5307786E+00  0.1671646E+01
0.1516987E+01  0.5143680E+00  0.1512350E+01
0.1661909E+01  0.5147686E+00  0.1644719E+01
0.1761865E+01  0.6508066E+00  0.1735374E+01
0.1692174E+01  0.5698207E+00  0.1672486E+01
0.1780214E+01  0.6037461E+00  0.1751823E+01
[...]
POINT_DATA    3280
SCALARS hauteur float
LOOKUP_TABLE DEFAULT
       2.3010905E-02
       1.1508276E-04
       2.7060000E-04
       2.3202721E-02
       1.2039441E-02
       1.1860477E-02
       2.6584526E-02
       3.4893077E-03
       1.3017633E-02
       2.5246312E-02
       2.5072290E-02
       2.1733037E-02
       2.1950812E-02
       2.2331202E-02
       2.3490056E-02
       3.2643073E-04
       2.2279003E-02
       2.4405158E-02
       1.4568942E-02
       2.0164761E-02
       2.3640938E-02
       2.3374067E-02
       2.5466445E-02
       2.3930001E-02
       2.4406811E-02
       2.4657006E-02
       2.3912714E-02
       2.0742780E-02
       2.6892536E-02
       2.4014417E-02
       2.5970975E-02
       2.4565478E-02
       2.5585456E-02
       2.6647688E-02
       1.9670289E-02
       2.2876959E-02
       2.2796544E-02
       2.0735727E-02
       1.9429493E-02
       2.4145144E-02
       2.1715305E-02
       1.9042844E-02
       1.8302760E-02
       2.0277802E-02
       1.6308907E-02
       1.8719200E-02
       2.4750049E-02
       1.7372475E-02
       1.9471240E-02
       2.2115665E-02
       2.0579813E-02
       2.1485300E-02
       1.7923547E-02
       2.6153836E-02
       2.5032818E-02
       2.6145631E-02
       2.2093265E-02
       1.7753639E-02
       2.3014345E-02
       1.6402608E-02
       2.0099239E-02
       1.9115273E-02
       2.1932819E-02
       1.4171111E-02
       2.0801835E-02
       2.0774663E-02
       1.8661950E-02
       3.8928249E-04
       2.5869183E-02
       1.4509336E-02
       2.2637983E-02
       1.5915411E-02
       1.4813226E-02
       1.9439752E-02
       1.0226817E-02
       2.5399520E-02
       2.6538544E-02
       2.7838131E-02
       2.6982393E-02
       2.6771259E-02
       2.8024580E-02
       2.7236971E-02
       2.7407982E-02
       2.7220225E-02
       2.7783073E-02
       2.6204714E-02
       2.8578814E-02
       2.5135314E-02
       2.3780176E-02
       2.4223415E-02
       2.5511967E-02
       2.8057359E-02
       2.9477234E-02
       2.8641337E-02
       2.8857677E-02
       2.3931324E-02
       1.7876941E-02
       1.6960708E-02
       1.6587834E-02
       1.3855291E-02
       1.6143654E-02
       1.5033794E-02
       1.1405772E-02
       1.8488980E-02
       1.9474693E-02
       1.9836714E-02
       2.1804382E-02
       1.9388664E-02
       1.8000059E-02
       2.0907940E-02
       1.4809160E-02
       1.6388927E-02
       1.4474852E-02
       1.7876363E-02
       2.0627821E-02
       2.1794293E-02
       1.0405022E-02
       2.2715593E-02
       2.1288674E-02
       1.2464197E-02
       1.1444355E-02
       1.1761058E-02
       1.2628760E-02
       2.2076674E-02
       2.3259154E-02
       2.4460984E-02
       2.0077872E-02
       1.3148242E-02
       1.2829439E-02
       1.1234071E-02
       7.9136178E-03
       2.2678657E-04
       9.9525708E-03
       9.5781304E-03
       8.9865441E-03
       4.9167641E-03
       6.7430944E-03
       1.8045315E-02
       7.9693122E-03
       5.5318578E-03
       2.7871908E-03
       1.0851597E-02
       1.2406813E-02
       8.8344017E-03
       1.0943123E-02
       1.2232489E-02
       1.4422213E-02
       9.6742717E-03
       2.4983124E-02
       2.7779794E-02
       2.6280417E-02
       2.8314458E-02
       2.7166567E-02
       2.7795565E-02
       2.8890583E-02
       2.6614232E-02
       1.7548164E-02
       1.4308358E-02
       2.3520347E-02
       2.7339916E-02
       2.0088298E-02
       1.1899646E-03
       2.6864808E-02
       2.8748004E-02
       2.3730709E-02
       7.5620870E-03
       1.7179973E-02
       1.7920110E-02
       1.5862006E-02
       1.9634843E-02
       2.1184139E-02
       2.5198231E-02
       2.7966385E-02
       2.9155007E-02
       8.4925247E-03
       4.4112693E-03
       2.3075067E-02
       1.1842061E-02
       6.3576465E-03
       1.4359261E-02
       8.6341584E-03
       6.0928609E-03
       1.4872977E-02
       1.3393303E-02
       2.4597416E-02
       2.8731700E-02
       2.8440567E-02
       2.9956252E-02
       2.8847675E-02
       2.9189961E-02
       2.6570323E-02
       1.2419821E-02
       2.6728524E-02
       2.8043632E-02
       1.9058512E-02
       2.4596279E-02
       2.3968890E-02
       1.9277662E-02
       9.9583924E-03
       6.5546088E-03
       9.4294502E-03
       7.6042990E-03
       1.0061907E-02
       1.1752618E-02
       4.5454988E-03
       2.6756606E-02
       1.3848097E-02
       5.6720630E-03
       3.5851239E-03
       4.8972888E-03
       4.7762810E-03
       5.8962708E-03
       1.7715430E-02
       8.2326975E-03
       6.0967191E-03
       1.4425260E-02
       2.5118179E-02
       4.6623058E-03
       1.0585958E-02
       1.4038242E-02
       2.5601667E-02
       1.5937613E-02
       8.6282489E-03
       1.4043234E-02
       7.0955672E-03
       2.2859592E-02
       1.5524966E-02
       9.2223391E-03
       2.1672828E-02
       1.5974105E-02
       1.0509785E-02
       9.9025499E-03
       1.2782084E-02
       1.2866752E-02
       4.2140691E-03
       6.1961818E-03
       4.5755060E-04
       1.0211416E-02
       2.6412871E-03
       7.2717732E-03
       8.4464558E-03
       1.5776320E-02
       1.2892096E-02
       6.2110395E-03
       4.0383991E-03
       4.1193297E-03
       5.5247490E-03
       6.6813523E-03
       6.8159808E-03
       8.9379231E-03
       2.0262913E-02
       2.7089666E-02
       1.6231916E-02
       1.8206407E-02
       2.0553320E-02
       2.2127517E-02
       5.8462550E-03
       8.8760842E-03
       5.5420330E-03
       2.4170754E-03
       2.0997807E-03
       3.2744702E-03
       1.0349747E-02
       1.0102152E-02
       2.3895786E-03
       1.4625788E-02
       4.6532354E-03
       1.3395832E-02
       3.3768581E-03
       7.4522948E-04
       9.2536666E-03
       1.7697848E-02
       1.6474272E-02
       1.8565344E-02
       8.4677813E-03
       1.7642800E-02
       2.2342378E-02
       2.1404474E-02
       2.6128754E-02
       2.4655141E-02
       2.1768819E-02
       2.5491364E-02
       1.2453524E-02
       6.1801288E-03
       2.1749136E-02
       9.0905548E-03
       2.0796494E-02
       6.4221722E-03
       2.8268422E-02
       2.8483391E-02
       2.9265913E-02
       2.9735606E-02
       3.0077456E-02
       2.6397346E-02
       2.5509564E-02
       2.7579089E-02
       2.4956871E-02
       2.5215289E-02
       2.0964041E-02
       2.4068040E-02
       1.7291926E-02
       2.3764988E-02
       2.2779546E-02
       5.7883179E-03
       3.8879808E-03
       3.1437897E-03
       7.9496230E-03
       1.6185646E-02
       3.5390802E-03
       5.2199794E-03
       1.8109340E-02
       2.1190134E-02
       5.3613990E-03
       1.3471879E-02
       5.6842468E-03
       1.1823030E-02
       9.2125119E-03
       1.1042920E-02
       1.0959855E-02
       5.4651290E-03
       2.9509170E-03
       1.0803942E-04
       7.2948979E-03
       1.6575122E-03
       1.0113817E-02
       6.6039188E-03
       1.7008145E-02
       4.1077718E-04
       3.6991566E-03
       9.1128281E-03
       8.1208797E-03
       1.4812054E-02
       1.2082529E-02
       3.1932997E-03
       1.9917349E-02
       1.4975390E-03
       1.2356525E-02
       2.3111942E-02
       1.3276731E-03
       6.9640477E-04
       1.4490836E-02
       1.4462082E-02
       1.5557779E-02
       1.5545006E-02
       7.7456554E-03
       1.6886502E-02
       1.5885202E-02
       1.6295104E-02
       1.8297918E-02
       1.5283290E-02
       1.0182903E-02
       1.3817264E-02
       1.4405710E-02
       4.7563036E-04
       3.7910666E-03
       3.9327896E-03
       5.7684035E-03
       3.3289031E-03
       3.4059923E-03
       1.5178464E-03
       1.4728872E-03
       9.5533884E-04
       1.6193850E-02
       1.8305380E-02
       1.6237412E-02
       1.3246959E-02
       1.7369860E-02
       1.1073577E-02
       4.8882591E-03
       9.3139096E-03
       5.5188057E-03
       4.2047665E-03
       2.8853733E-03
       4.3456301E-03
       5.3186517E-03
       2.7826540E-02
       3.1082237E-02
       2.9402341E-02
       3.0021133E-02
       3.0936377E-02
       2.9631754E-02
       3.0498704E-02
       3.1485788E-02
       3.1175790E-02
       3.2288999E-02
       3.0701021E-02
       3.1791224E-02
       3.2828994E-02
       3.2238933E-02
       3.1933228E-02
       3.2034348E-02
       3.1144087E-02
       2.9855042E-02
       2.9378036E-02
       2.9258343E-02
       2.9193696E-02
       3.0158599E-02
       3.0750627E-02
       3.0870531E-02
       2.7593131E-02
       2.4745744E-02
       2.7815734E-02
       2.6430071E-02
       2.4985184E-02
       2.9947667E-02
       3.1110909E-02
       3.0767460E-02
       3.0393647E-02
       3.0353934E-02
       3.0959180E-02
       3.2289058E-02
       3.1703604E-02
       3.0163998E-02
       3.1598074E-02
       3.2192985E-02
       3.2348352E-02
       3.1670308E-02
       3.0618894E-02
       3.0998374E-02
       3.3633594E-02
       3.1569212E-02
       3.3418894E-02
       3.2944371E-02
       3.2881052E-02
       3.2913893E-02
       3.3928301E-02
       3.3354928E-02
       3.3198171E-02
       3.2880868E-02
       3.3360157E-02
       3.4418479E-02
       3.3838654E-02
       3.4166357E-02
       3.3381810E-02
       3.5184658E-02
       3.2948980E-02
       3.4496387E-02
       3.2028780E-02
       3.3924420E-02
       3.4759595E-02
       3.5500878E-02
       3.5314103E-02
       3.6306804E-02
       3.5792864E-02
       3.5165458E-02
       3.4216105E-02
       3.2703659E-02
       3.3400452E-02
       3.5844432E-02
       3.6022674E-02
       3.6139338E-02
       3.6962133E-02
       3.6629039E-02
       3.4955337E-02
       3.6522216E-02
       3.2131533E-02
       3.3225137E-02
       3.6475336E-02
       3.6427543E-02
       3.5793834E-02
       3.6398281E-02
       3.6805548E-02
       3.1277227E-02
       3.3186184E-02
       3.7430944E-02
       3.2589817E-02
       3.4286452E-02
       3.7042223E-02
       3.7302255E-02
       3.1368735E-02
       3.3847673E-02
       3.4427282E-02
       3.6911978E-02
       3.7317698E-02
       3.7259058E-02
       3.8146658E-02
       3.7815309E-02
       3.1952707E-02
       3.1290145E-02
       3.2252507E-02
       2.9711215E-02
       3.2347756E-02
       3.0534304E-02
       3.0587315E-02
       3.0407625E-02
       3.7897424E-02
       3.8851779E-02
       2.9451437E-02
       3.7657702E-02
       3.8198916E-02
       3.7592920E-02
       3.8427169E-02
       2.8617925E-02
       2.9916939E-02
       2.9220774E-02
       2.8137766E-02
       2.8873558E-02
       2.9078312E-02
       3.7981748E-02
       3.7492773E-02
       3.8435358E-02
       3.7604397E-02
       2.7993245E-02
       2.7288768E-02
       3.7171357E-02
       3.8906327E-02
       3.8180621E-02
       3.6455069E-02
       2.7589697E-02
       3.8685009E-02
       3.7010196E-02
       3.6361134E-02
       2.8517515E-02
       3.8132349E-02
       3.8770931E-02
       3.7356332E-02
       3.9705717E-02
       3.7464900E-02
       3.9351580E-02
       3.9272093E-02
       3.9292852E-02
       3.9564366E-02
       3.9267551E-02
       3.8839838E-02
       3.8726332E-02
       4.0085309E-02
       3.9688077E-02
       4.0259998E-02
       3.9751194E-02
       3.9987393E-02
       2.7657260E-02
       4.2722677E-03
       2.7396408E-03
       1.1640612E-03
       1.9853508E-03
       1.2352630E-03
       1.7944729E-03
       1.6380357E-03
       2.3398347E-03
       2.6456835E-03
       2.2735296E-03
       3.0814857E-03
       2.1642240E-04
       3.4607294E-04
       1.4117413E-03
       1.5993641E-03
       1.0141257E-03
       5.9964769E-04
       1.6866096E-03
       4.1129363E-04
       4.3684383E-04
       1.0922832E-03
       7.0378459E-04
       4.1195111E-04
       6.4439594E-04
       2.2108122E-04
       2.6469748E-02
       1.6414746E-02
       1.5141180E-02
       1.8345319E-02
       1.6643330E-02
       1.7249492E-02
       1.9032116E-02
       2.4479713E-02
       2.2108722E-02
       2.3680989E-02
       2.4959375E-02
       2.2540001E-02
       2.3583656E-02
       2.1066938E-02
       2.3941049E-02
       2.5183273E-02
       2.4373195E-02
       2.6203114E-02
       2.7135228E-02
       2.6138039E-02
       2.4654861E-02
       2.2328830E-02
       2.3505893E-02
       2.2553126E-02
       2.3325923E-02
       2.4582083E-02
       2.3611853E-02
       2.2423693E-02
       2.3509720E-02
       2.2815562E-02
       2.3461837E-02
       2.0662295E-02
       2.3387776E-02
       2.1228968E-02
       2.4831446E-02
       2.2350106E-02
       2.4432821E-02
       2.5597589E-02
       2.1893821E-02
       2.2244164E-02
       2.3469772E-02
       2.5655607E-02
       2.6667408E-02
       2.5896852E-02
       2.4845753E-02
       2.7487364E-02
       2.5527502E-02
       2.6125593E-02
       2.5552918E-02
       2.4458855E-02
       2.6611833E-02
       2.6519795E-02
       2.8183633E-02
       2.6649956E-02
       2.7408528E-02
       2.9078831E-02
       2.8285587E-02
       2.9615710E-02
       7.6331847E-03
       9.8625037E-03
       1.1801742E-02
       1.2859876E-02
       1.2457753E-02
       1.1548432E-02
       3.9453150E-03
       1.0082913E-03
       4.4128068E-03
       1.9116037E-03
       1.3587624E-02
       1.8725406E-02
       1.1851265E-02
       1.0336972E-02
       1.6487876E-02
       1.7058137E-02
       1.4882840E-02
       1.2272831E-02
       1.2723806E-02
       1.4194407E-02
       1.4647331E-02
       1.6672354E-02
       1.0521299E-02
       8.4292565E-03
       1.0679198E-02
       1.0515010E-02
       8.1005363E-03
       9.1685566E-03
       1.0638671E-02
       5.1025814E-03
       5.0045982E-03
       7.1668700E-03
       4.9548588E-03
       6.3637432E-03
       6.4352767E-03
       1.1771042E-02
       4.9530518E-03
       6.9572283E-03
       3.9869666E-03
       1.9126686E-03
       1.9312081E-03
       1.1476898E-03
       1.9593224E-02
       1.9264592E-02
       1.8926574E-02
       5.7244703E-03
       6.7135019E-03
       7.4960237E-03
       4.8964183E-03
       5.0704746E-03
       3.3682212E-03
       2.7874404E-02
       2.7039504E-02
       2.8835249E-02
       2.7017235E-02
       2.9011879E-02
       2.5279045E-02
       3.0206818E-02
       2.4831702E-02
       3.1313960E-02
       2.9995790E-02
       2.6968133E-02
       2.8249040E-02
       1.7096016E-02
       3.0845580E-02
       2.1937507E-02
       2.2230974E-02
       1.0585282E-02
       2.0853076E-02
       3.2006051E-02
       1.4331982E-02
       1.1124098E-02
       1.4539933E-02
       1.4205627E-02
       3.0488532E-02
       3.1945895E-02
       2.4186136E-02
       2.2795735E-02
       3.1520715E-02
       3.3611965E-02
       3.3780722E-02
       3.1478419E-02
       3.3753967E-02
       3.5508327E-02
       3.5012642E-02
       3.7800006E-02
       3.6672184E-02
       3.8540153E-02
       3.8070615E-02
       3.8626965E-02
       3.7992358E-02
       3.8633966E-02
       3.9676592E-02
       3.9158655E-02
       3.9175631E-02
       3.9283900E-02
       3.6461197E-02
       3.7091586E-02
       3.5567083E-02
       3.6840304E-02
       3.9115711E-02
       3.9280536E-02
       3.8594071E-02
       3.8362122E-02
       3.8684980E-02
       3.9960678E-02
       4.0980422E-02
       2.4158032E-03
       4.4433285E-04
       8.4364290E-04
       3.1175734E-04
       1.9250192E-02
       2.0442189E-02
       1.7957639E-02
       1.9465442E-02
       1.9777411E-02
       2.6272001E-02
       2.8484550E-02
       2.8027590E-02
       2.0981877E-02
       1.9675464E-02
       1.9401889E-02
       2.5438918E-02
       2.4547475E-02
       2.1812302E-02
       2.8115871E-02
       3.0596957E-02
       1.5880629E-03
       8.0785052E-04
       2.5007862E-03
       1.1302860E-03
       1.5225006E-03
       4.2348484E-03
       3.5927274E-04
       1.4050662E-03
       1.3983312E-04
       2.8445279E-04
       3.8995649E-04
       5.9498191E-04
       2.4537310E-04
       6.5918939E-04
       1.7044922E-04
       6.5150562E-03
       8.2201461E-03
       2.0611163E-03
       2.9297738E-03
       1.6831348E-02
       1.7632906E-02
       1.9520560E-02
       1.9646336E-02
       2.0403668E-02
       2.1475456E-02
       2.1987837E-02
       1.0077612E-02
       9.4503751E-03
       1.3558600E-02
       1.4624690E-02
       4.7436821E-03
       1.1616276E-02
       1.2808485E-02
       2.8046617E-03
       1.1827986E-02
       1.4534563E-02
       1.6198443E-02
       1.6172436E-02
       1.7382555E-02
       1.5857278E-02
       7.1913846E-04
       1.7755295E-02
       1.3942604E-02
       1.7357121E-02
       1.2867793E-02
       1.3135544E-02
       1.2439257E-02
       5.7369242E-03
       9.3371464E-03
       7.1900442E-03
       8.4620510E-03
       6.9322582E-03
       3.0408632E-03
       1.2380418E-03
       1.6840561E-02
       1.5974537E-02
       1.8300615E-02
       8.2812314E-03
       8.4620100E-03
       7.1418304E-03
       1.0624540E-02
       9.2081850E-03
       8.1596938E-03
       1.2830873E-02
       3.9052064E-03
       1.1509354E-03
       7.9777817E-04
       2.2261935E-02
       1.7602507E-02
       1.1853405E-02
       1.4039025E-02
       1.1377258E-02
       1.6299819E-02
       1.8758850E-02
       1.7684283E-02
       3.2820673E-02
       3.4852314E-02
       3.4930923E-02
       3.5160913E-02
       3.5119733E-02
       3.5578247E-02
       3.4447245E-02
       3.4272556E-02
       3.4926762E-02
       3.4258441E-02
       3.7831162E-02
       3.7879067E-02
       4.2899221E-02
       3.7941855E-02
       3.6237861E-02
       4.0418967E-02
       3.9658852E-02
       4.0449506E-02
       3.9694624E-02
       3.8359268E-02
       4.1536643E-02
       3.3529178E-02
       4.1109480E-02
       4.2268391E-02
       3.6481257E-02
       3.2583602E-02
       4.2228908E-02
       4.1849846E-02
       4.0019633E-02
       4.0290806E-02
       4.0532290E-02
       3.3834404E-02
       4.1343631E-02
       3.6613921E-02
       4.0915663E-02
       3.5338374E-02
       4.1889791E-02
       4.0712992E-02
       4.1394412E-02
       4.1046650E-02
       4.1527974E-02
       4.0157604E-02
       4.2071544E-02
       3.8310366E-02
       4.1783291E-02
       3.7898818E-02
       3.7076722E-02
       4.1534243E-02
       4.2134862E-02
       3.8477484E-02
       3.7056818E-02
       1.8235189E-02
       4.2616814E-02
       1.5661723E-02
       4.3010296E-02
       3.8787975E-02
       4.2731877E-02
       3.5143029E-02
       3.4037468E-02
       4.2819411E-02
       4.3210873E-02
       4.3209696E-02
       4.3833032E-02
       4.2538326E-02
       4.2398559E-02
       3.7942001E-02
       3.6036450E-02
       3.7524121E-02
       3.5558650E-02
       3.4957237E-02
       4.0826788E-02
       3.6466312E-02
       3.7488712E-02
       3.4549519E-02
       3.5180688E-02
       3.6647127E-02
       4.4516766E-02
       3.9012552E-02
       4.1658136E-02
       3.6109879E-02
       4.1416078E-02
       3.6574970E-02
       3.5962146E-02
       3.4943905E-02
       3.4103825E-02
       3.5460459E-02
       3.5948415E-02
       3.6087860E-02
       3.5722899E-02
       3.5235475E-02
       3.5669507E-02
       3.4730495E-02
       3.5612347E-02
       3.4002932E-02
       3.3712463E-02
       3.4360795E-02
       3.3648904E-02
       3.4384155E-02
       3.5019809E-02
       3.4561770E-02
       3.3804139E-02
       3.3066060E-02
       3.2859173E-02
       3.2708900E-02
       3.1647051E-02
       3.3412436E-02
       3.3705754E-02
       3.7083231E-02
       3.9059356E-02
       3.8163754E-02
       3.8505483E-02
       3.9725426E-02
       4.0631281E-02
       4.0360410E-02
       4.0619789E-02
       4.0380922E-02
       3.9928957E-02
       4.0759333E-02
       4.0248867E-02
       4.1325692E-02
       4.0275202E-02
       4.1215783E-02
       4.0891099E-02
       4.1648399E-02
       4.0607272E-02
       4.0695615E-02
       4.0643632E-02
       3.9789455E-02
       4.1074005E-02
       4.0266962E-02
       4.0060951E-02
       4.0877409E-02
       4.0941372E-02