# vtk DataFile Version 3.0
# Solution du M1 TR
ASCII
DATASET UNSTRUCTURED_GRID
POINTS   3280  float
0.0000000E+00  0.0000000E+00  0.9674031E-02
0.2000000E+01  0.0000000E+00  0.1960140E+01
0.2000000E+01  0.1000000E+01  0.1960155E+01
0.0000000E+00  0.1000000E+01  0.9673458E-02
0.1000000E+01  0.0000000E+00  0.9895790E+00
0.1000000E+01  0.1000000E+01  0.9891290E+00
0.1500000E+01  0.5000000E+00  0.1499310E+01
0.1500000E+01  0.0000000E+00  0.1474877E+01
0.1723284E+01  0.3570951E+00  0.1706183E+01
0.1500000E+01  0.2500000E+00  0.1497458E+01
0.1515103E+01  0.2763186E+00  0.1512174E+01
0.1594866E+01  0.2826386E+00  0.1586572E+01
0.1562500E+01  0.1875000E+00  0.1554480E+01
0.1534357E+01  0.1819434E+00  0.1527496E+01
0.1561083E+01  0.3343258E+00  0.1555690E+01
0.1750000E+01  0.0000000E+00  0.1715512E+01
0.1503267E+01  0.1622339E+00  0.1497255E+01
0.1514910E+01  0.2261192E+00  0.1510859E+01
0.1610795E+01  0.1290247E+00  0.1595178E+01
0.1539062E+01  0.1536458E+00  0.1529929E+01
0.1510772E+01  0.1982718E+00  0.1505934E+01
0.1541862E+01  0.2179813E+00  0.1535939E+01
0.1475030E+01  0.2178147E+00  0.1473400E+01
0.1539206E+01  0.2578835E+00  0.1534188E+01
0.1521085E+01  0.2465697E+00  0.1516958E+01
0.1496499E+01  0.2146241E+00  0.1493226E+01
0.1481433E+01  0.1870688E+00  0.1477773E+01
0.1586261E+01  0.1960616E+00  0.1576535E+01
0.1460896E+01  0.2899333E+00  0.1461666E+01
0.1542195E+01  0.2867649E+00  0.1537461E+01
0.1486080E+01  0.2754813E+00  0.1484964E+01
0.1536278E+01  0.3247610E+00  0.1532620E+01
0.1510131E+01  0.3295675E+00  0.1508351E+01
0.1455545E+01  0.2514402E+00  0.1456009E+01
0.1610995E+01  0.1909452E+00  0.1599850E+01
0.1564462E+01  0.2395252E+00  0.1557577E+01
0.1571524E+01  0.3026484E+00  0.1564960E+01
0.1613657E+01  0.2555806E+00  0.1603901E+01
0.1633998E+01  0.2714643E+00  0.1622819E+01
0.1534973E+01  0.3650914E+00  0.1531102E+01
0.1583157E+01  0.2286349E+00  0.1574573E+01
0.1586501E+01  0.1581416E+00  0.1575182E+01
0.1651985E+01  0.2274641E+00  0.1639292E+01
0.1619170E+01  0.2936434E+00  0.1609136E+01
0.1678889E+01  0.2641389E+00  0.1664642E+01
0.1642286E+01  0.2930521E+00  0.1630530E+01
0.1526415E+01  0.3446283E+00  0.1523343E+01
0.1662420E+01  0.3044259E+00  0.1649377E+01
0.1636786E+01  0.2469276E+00  0.1625406E+01
0.1588953E+01  0.3366240E+00  0.1581564E+01
0.1616427E+01  0.3314099E+00  0.1606955E+01
0.1598305E+01  0.3102698E+00  0.1589906E+01
0.1655410E+01  0.2614708E+00  0.1642680E+01
0.1487553E+01  0.3072167E+00  0.1486847E+01
0.1520126E+01  0.3036443E+00  0.1517261E+01
0.1477894E+01  0.2544664E+00  0.1477127E+01
0.1567847E+01  0.2133479E+00  0.1559869E+01
0.1663947E+01  0.3299725E+00  0.1651221E+01
0.1567022E+01  0.2696000E+00  0.1560516E+01
0.1678598E+01  0.3509559E+00  0.1664639E+01
0.1611933E+01  0.3827205E+00  0.1602490E+01
0.1640491E+01  0.3197373E+00  0.1629234E+01
0.1588015E+01  0.2526666E+00  0.1579805E+01
0.1708471E+01  0.3144917E+00  0.1692316E+01
0.1606944E+01  0.3564315E+00  0.1598097E+01
0.1604614E+01  0.2314093E+00  0.1594791E+01
0.1643491E+01  0.3631133E+00  0.1632066E+01
0.2000000E+01  0.5000000E+00  0.1960350E+01
0.1494727E+01  0.3621796E+00  0.1493747E+01
0.1701807E+01  0.3477237E+00  0.1686091E+01
0.1572156E+01  0.3701847E+00  0.1565878E+01
0.1688392E+01  0.3285111E+00  0.1673827E+01
0.1695932E+01  0.3904821E+00  0.1680595E+01
0.1636337E+01  0.3418163E+00  0.1625590E+01
0.1505941E+01  0.9448485E-01  0.1488451E+01
0.1423727E+01  0.1910920E+00  0.1423561E+01
0.1481447E+01  0.3359634E+00  0.1481557E+01
0.1441613E+01  0.3726133E+00  0.1444417E+01
0.1466699E+01  0.3599060E+00  0.1467808E+01
0.1476682E+01  0.4107296E+00  0.1477214E+01
0.1434448E+01  0.3273535E+00  0.1437615E+01
0.1464523E+01  0.3867258E+00  0.1465997E+01
0.1456903E+01  0.3373583E+00  0.1458752E+01
0.1454188E+01  0.3132491E+00  0.1455710E+01
0.1424069E+01  0.2919612E+00  0.1426964E+01
0.1490969E+01  0.3884111E+00  0.1490521E+01
0.1428051E+01  0.4202828E+00  0.1432029E+01
0.1513790E+01  0.3782958E+00  0.1511512E+01
0.1547789E+01  0.4092466E+00  0.1543250E+01
0.1535154E+01  0.3889763E+00  0.1531376E+01
0.1512699E+01  0.4170463E+00  0.1510859E+01
0.1441554E+01  0.3983607E+00  0.1444616E+01
0.1395941E+01  0.3853832E+00  0.1401996E+01
0.1420578E+01  0.3854393E+00  0.1424933E+01
0.1408336E+01  0.3518173E+00  0.1413294E+01
0.1549967E+01  0.3074339E+00  0.1545167E+01
0.1651639E+01  0.4114272E+00  0.1639619E+01
0.1668616E+01  0.3788978E+00  0.1655342E+01
0.1674624E+01  0.4027285E+00  0.1661076E+01
0.1706988E+01  0.4343785E+00  0.1691083E+01
0.1673984E+01  0.4357547E+00  0.1660324E+01
0.1695270E+01  0.4139894E+00  0.1680228E+01
0.1737273E+01  0.4034108E+00  0.1719065E+01
0.1645630E+01  0.3875965E+00  0.1634157E+01
0.1625874E+01  0.4052508E+00  0.1615633E+01
0.1627808E+01  0.4540126E+00  0.1617837E+01
0.1587158E+01  0.4136289E+00  0.1579742E+01
0.1633718E+01  0.4293591E+00  0.1623241E+01
0.1651607E+01  0.4466828E+00  0.1639761E+01
0.1605650E+01  0.4356658E+00  0.1597053E+01
0.1682168E+01  0.4808869E+00  0.1667875E+01
0.1671711E+01  0.4594749E+00  0.1658476E+01
0.1698428E+01  0.4596870E+00  0.1683331E+01
0.1646221E+01  0.4851828E+00  0.1634645E+01
0.1607747E+01  0.4151289E+00  0.1598841E+01
0.1584205E+01  0.4841185E+00  0.1577053E+01
0.1747573E+01  0.4622079E+00  0.1728828E+01
0.1568396E+01  0.4481495E+00  0.1562329E+01
0.1601760E+01  0.4629165E+00  0.1593701E+01
0.1723356E+01  0.4540167E+00  0.1706340E+01
0.1732897E+01  0.4294241E+00  0.1714934E+01
0.1722218E+01  0.4972746E+00  0.1705314E+01
0.1715121E+01  0.4754441E+00  0.1698735E+01
0.1584567E+01  0.4345797E+00  0.1577508E+01
0.1563465E+01  0.4258523E+00  0.1558023E+01
0.1534166E+01  0.4440258E+00  0.1530599E+01
0.1615090E+01  0.4918227E+00  0.1605885E+01
0.1717469E+01  0.4134541E+00  0.1700730E+01
0.1718488E+01  0.3909170E+00  0.1701454E+01
0.1741353E+01  0.3769080E+00  0.1722814E+01
0.1781199E+01  0.4241746E+00  0.1759746E+01
0.2000000E+01  0.2500000E+00  0.1960239E+01
0.1756308E+01  0.4199875E+00  0.1736830E+01
0.1762447E+01  0.3937207E+00  0.1742441E+01
0.1765097E+01  0.4438197E+00  0.1744911E+01
0.1807974E+01  0.4625425E+00  0.1783937E+01
0.1789176E+01  0.4471344E+00  0.1766917E+01
0.1514158E+01  0.1287364E+00  0.1503850E+01
0.1777674E+01  0.4803377E+00  0.1756647E+01
0.1811145E+01  0.4395021E+00  0.1787346E+01
0.1850404E+01  0.4566449E+00  0.1822623E+01
0.1748483E+01  0.3522599E+00  0.1729383E+01
0.1731235E+01  0.3304535E+00  0.1713525E+01
0.1777870E+01  0.3654441E+00  0.1756844E+01
0.1748149E+01  0.2821176E+00  0.1729016E+01
0.1732875E+01  0.3039003E+00  0.1714940E+01
0.1708314E+01  0.2807181E+00  0.1692233E+01
0.1767650E+01  0.3193756E+00  0.1747271E+01
0.1372661E+01  0.1704076E+00  0.1373572E+01
0.1411157E+01  0.2494459E+00  0.1414353E+01
0.1448000E+01  0.2246098E+00  0.1448198E+01
0.1360382E+01  0.2278583E+00  0.1365600E+01
0.1433680E+01  0.2431125E+00  0.1435438E+01
0.1388814E+01  0.2314916E+00  0.1392629E+01
0.1314549E+01  0.2124991E+00  0.1321579E+01
0.1404157E+01  0.2007613E+00  0.1406074E+01
0.1415035E+01  0.1072182E+00  0.1406940E+01
0.1520299E+01  0.1091515E+00  0.1506398E+01
0.1459010E+01  0.1690672E+00  0.1455744E+01
0.1436337E+01  0.2690050E+00  0.1438251E+01
0.1443480E+01  0.1263360E+00  0.1437224E+01
0.1625000E+01  0.0000000E+00  0.1594496E+01
0.1414954E+01  0.2197329E+00  0.1416820E+01
0.1335299E+01  0.2266424E+00  0.1341673E+01
0.1396801E+01  0.1612344E+00  0.1395611E+01
0.1792033E+01  0.3934232E+00  0.1769868E+01
0.1541310E+01  0.1264947E+00  0.1529503E+01
0.1483859E+01  0.1256971E+00  0.1474193E+01
0.1500341E+01  0.1139400E+00  0.1488392E+01
0.1498380E+01  0.1421255E+00  0.1489949E+01
0.1478242E+01  0.1468909E+00  0.1471949E+01
0.1453147E+01  0.1972183E+00  0.1451802E+01
0.1348833E+01  0.2067866E+00  0.1353867E+01
0.1368157E+01  0.2800764E+00  0.1374384E+01
0.1250000E+01  0.0000000E+00  0.1233971E+01
0.1496272E+01  0.2780308E-01  0.1472491E+01
0.1430228E+01  0.1622338E+00  0.1427394E+01
0.1544491E+01  0.1012427E+00  0.1527701E+01
0.1505524E+01  0.5428530E-01  0.1483919E+01
0.1576405E+01  0.1180891E+00  0.1561196E+01
0.1526885E+01  0.8834234E-01  0.1507437E+01
0.1558557E+01  0.6358195E-01  0.1535851E+01
0.1372206E+01  0.9428859E-01  0.1362311E+01
0.1414069E+01  0.8636887E-01  0.1401704E+01
0.1351230E+01  0.1581055E+00  0.1352315E+01
0.1371634E+01  0.2528708E+00  0.1377180E+01
0.1392978E+01  0.2694234E+00  0.1397578E+01
0.1321668E+01  0.2603105E+00  0.1329999E+01
0.1392566E+01  0.3027057E+00  0.1397814E+01
0.1345601E+01  0.2495441E+00  0.1352362E+01
0.1349996E+01  0.1827855E+00  0.1353336E+01
0.1475238E+01  0.9618066E-01  0.1460502E+01
0.1487372E+01  0.4556180E+00  0.1487418E+01
0.1432024E+01  0.3509343E+00  0.1435330E+01
0.1619231E+01  0.5383449E+00  0.1609377E+01
0.1532505E+01  0.4233173E+00  0.1529146E+01
0.1547332E+01  0.4788657E+00  0.1542905E+01
0.1627786E+01  0.4750493E+00  0.1617478E+01
0.1750658E+01  0.4911384E+00  0.1731825E+01
0.1783313E+01  0.5336292E+00  0.1761749E+01
0.1744147E+01  0.5299352E+00  0.1725502E+01
0.1772978E+01  0.5077787E+00  0.1752212E+01
0.1739682E+01  0.5092411E+00  0.1721402E+01
0.1715917E+01  0.5251974E+00  0.1699288E+01
0.1809547E+01  0.4999146E+00  0.1785481E+01
0.1486188E+01  0.5335558E+00  0.1485822E+01
0.1695320E+01  0.5058771E+00  0.1680378E+01
0.1793562E+01  0.5145404E+00  0.1770955E+01
0.1827482E+01  0.5355643E+00  0.1801888E+01
0.1805457E+01  0.5332234E+00  0.1781975E+01
0.1812320E+01  0.5734372E+00  0.1788492E+01
0.1794794E+01  0.5557356E+00  0.1772445E+01
0.1637325E+01  0.5533192E+00  0.1626267E+01
0.1761146E+01  0.5591762E+00  0.1741403E+01
0.1789115E+01  0.5788851E+00  0.1767016E+01
0.1693317E+01  0.6123782E+00  0.1678475E+01
0.1522396E+01  0.5359490E+00  0.1519516E+01
0.1814654E+01  0.6254783E+00  0.1790372E+01
0.1726166E+01  0.5505978E+00  0.1708750E+01
0.1691322E+01  0.5307786E+00  0.1676717E+01
0.1516987E+01  0.5143680E+00  0.1514771E+01
0.1661909E+01  0.5147686E+00  0.1649157E+01
0.1761865E+01  0.6508066E+00  0.1741798E+01
0.1692174E+01  0.5698207E+00  0.1677493E+01
0.1780214E+01  0.6037461E+00  0.1759025E+01
[...]
POINT_DATA    3280
SCALARS hauteur float
LOOKUP_TABLE DEFAULT
       9.6740314E-03
       6.5142038E-06
       2.1688282E-05
       9.6734581E-03
       9.5123791E-03
       9.0624530E-03
       2.9210056E-02
       4.7772086E-03
       1.7250181E-02
       2.7358628E-02
       2.7272023E-02
       2.3497543E-02
       2.3125769E-02
       2.3723414E-02
       2.5724507E-02
       3.9559412E-04
       2.3953111E-02
       2.6145890E-02
       1.6491003E-02
       2.1544905E-02
       2.5276628E-02
       2.4811647E-02
       2.7771963E-02
       2.5663974E-02
       2.6193034E-02
       2.6556883E-02
       2.5870034E-02
       2.1893043E-02
       2.9890141E-02
       2.6007180E-02
       2.8506940E-02
       2.6965292E-02
       2.8322923E-02
       2.9478377E-02
       2.0967661E-02
       2.4299795E-02
       2.4762182E-02
       2.2409533E-02
       2.1391962E-02
       2.6726186E-02
       2.2973596E-02
       2.0304609E-02
       2.0236947E-02
       2.2241510E-02
       1.9219236E-02
       2.0980180E-02
       2.7354663E-02
       2.0095217E-02
       2.1246508E-02
       2.4284835E-02
       2.2749326E-02
       2.3460803E-02
       2.0267134E-02
       2.8946267E-02
       2.7435832E-02
       2.8692702E-02
       2.3274853E-02
       2.0441662E-02
       2.4729166E-02
       1.9500408E-02
       2.2688028E-02
       2.1443573E-02
       2.3445025E-02
       1.7900873E-02
       2.3184902E-02
       2.2161760E-02
       2.1335307E-02
       2.1709405E-04
       2.8815285E-02
       1.8207006E-02
       2.5060954E-02
       1.9090693E-02
       1.8468191E-02
       2.1870477E-02
       1.2529006E-02
       2.8213364E-02
       2.9640475E-02
       3.1539871E-02
       3.0345893E-02
       2.9966985E-02
       3.1760689E-02
       3.0667264E-02
       3.0889674E-02
       3.0508685E-02
       3.1281155E-02
       2.9272016E-02
       3.2443849E-02
       2.7897168E-02
       2.6313417E-02
       2.6822720E-02
       2.8313840E-02
       3.1796927E-02
       3.3881479E-02
       3.2671814E-02
       3.3031126E-02
       2.6097041E-02
       2.0902531E-02
       1.9987410E-02
       1.9832111E-02
       1.8121491E-02
       1.9708076E-02
       1.8750660E-02
       1.6422099E-02
       2.1330231E-02
       2.2167940E-02
       2.2477334E-02
       2.4221063E-02
       2.2089331E-02
       2.1075610E-02
       2.3409410E-02
       1.9237972E-02
       2.0087112E-02
       1.8759150E-02
       2.1238229E-02
       2.3141216E-02
       2.4426690E-02
       1.6090019E-02
       2.5196623E-02
       2.3869564E-02
       1.7336952E-02
       1.6579233E-02
       1.7425286E-02
       1.7802159E-02
       2.4526579E-02
       2.5722773E-02
       2.7014391E-02
       2.2989699E-02
       1.7496151E-02
       1.7220650E-02
       1.6172171E-02
       1.4051789E-02
       1.0588129E-04
       1.5530824E-02
       1.5125629E-02
       1.4998483E-02
       1.2002806E-02
       1.3405921E-02
       1.9873747E-02
       1.4408805E-02
       1.2303169E-02
       9.1045818E-03
       1.5753771E-02
       1.6799088E-02
       1.4413177E-02
       1.5713435E-02
       1.6606974E-02
       1.7971432E-02
       1.4856069E-02
       2.8273262E-02
       3.1325945E-02
       2.9061681E-02
       3.2334798E-02
       3.0335988E-02
       3.1498557E-02
       3.3233742E-02
       2.9905962E-02
       2.0111270E-02
       1.6403237E-02
       2.5818030E-02
       3.0545152E-02
       2.2518131E-02
       1.8880161E-03
       3.0071528E-02
       3.2990320E-02
       2.6652138E-02
       1.3557091E-02
       1.8916868E-02
       1.9912494E-02
       1.7958388E-02
       2.1437625E-02
       2.3173572E-02
       2.7621043E-02
       3.1920758E-02
       3.3498710E-02
       8.8877355E-03
       6.0452734E-03
       2.5675508E-02
       1.3997299E-02
       8.4049303E-03
       1.6214070E-02
       1.0988582E-02
       8.3621121E-03
       1.7457759E-02
       1.5822495E-02
       2.8019880E-02
       3.2887537E-02
       3.2366810E-02
       3.4677041E-02
       3.3006862E-02
       3.3583099E-02
       3.0250291E-02
       1.4671210E-02
       2.9695058E-02
       3.1850727E-02
       2.2422687E-02
       2.7189020E-02
       2.6415981E-02
       2.2139004E-02
       1.6063412E-02
       1.3983899E-02
       1.6122184E-02
       1.4575629E-02
       1.6397959E-02
       1.7575802E-02
       1.2004603E-02
       2.9259191E-02
       1.8851413E-02
       1.3144568E-02
       1.0834483E-02
       1.2506117E-02
       1.2298336E-02
       1.3427345E-02
       2.1579155E-02
       1.5362187E-02
       1.3564097E-02
       1.8911599E-02
       2.7466152E-02
       1.1890229E-02
       1.6992100E-02
       1.9109032E-02
       2.8022686E-02
       2.0375520E-02
       1.5052523E-02
       1.9049692E-02
       1.4296945E-02
       2.5344752E-02
       2.0155569E-02
       1.5838669E-02
       2.4327282E-02
       1.9305138E-02
       1.6516856E-02
       1.5939918E-02
       1.7189537E-02
       1.6836415E-02
       1.0774182E-02
       1.1374338E-02
       1.6532801E-04
       1.4576182E-02
       8.1122988E-03
       1.3848913E-02
       1.5225970E-02
       1.8985824E-02
       1.6729215E-02
       1.2622618E-02
       1.0261160E-02
       1.0480171E-02
       1.1837284E-02
       1.2689025E-02
       1.2768925E-02
       1.4387376E-02
       2.1818942E-02
       3.0707232E-02
       1.7844668E-02
       1.9657703E-02
       2.1770227E-02
       2.5166792E-02
       8.1408486E-03
       1.1175155E-02
       7.6906510E-03
       3.6154481E-03
       3.6225611E-03
       4.8625912E-03
       1.2588355E-02
       1.2739127E-02
       4.2387941E-03
       1.6628833E-02
       7.0821904E-03
       1.5605108E-02
       5.3367922E-03
       1.1299508E-03
       1.2192442E-02
       1.9144551E-02
       1.8083038E-02
       1.9851390E-02
       1.0599911E-02
       1.9847253E-02
       2.5544558E-02
       2.3689236E-02
       2.9928634E-02
       2.8186450E-02
       2.4961431E-02
       2.8646552E-02
       1.4725743E-02
       7.5077017E-03
       2.4417311E-02
       1.1186925E-02
       2.3611417E-02
       8.3997462E-03
       3.2068950E-02
       3.2431894E-02
       3.3660269E-02
       3.4316777E-02
       3.4864211E-02
       2.9390075E-02
       2.8197940E-02
       3.0941082E-02
       2.7490727E-02
       2.7662114E-02
       2.3688898E-02
       2.6468923E-02
       2.1312064E-02
       2.6245211E-02
       2.5297967E-02
       1.2836525E-02
       1.1084156E-02
       1.0026784E-02
       1.5077543E-02
       2.0243466E-02
       1.0037157E-02
       1.2605004E-02
       2.1703865E-02
       2.3961804E-02
       1.1431296E-02
       1.7953356E-02
       1.2233115E-02
       1.7095996E-02
       1.5070463E-02
       1.5945405E-02
       1.6331119E-02
       1.2459189E-02
       8.3553623E-03
       1.1613993E-04
       1.3396866E-02
       5.3474906E-03
       1.4980444E-02
       1.3752737E-02
       2.0352801E-02
       2.5830162E-04
       1.0728033E-02
       1.4590929E-02
       1.3426092E-02
       1.8638927E-02
       1.7713689E-02
       4.3193700E-03
       2.2966447E-02
       4.9174874E-03
       1.5962619E-02
       2.5558824E-02
       4.3337328E-03
       1.6731152E-03
       1.8142244E-02
       1.7636783E-02
       1.9324729E-02
       1.9447028E-02
       1.2323972E-02
       1.9537578E-02
       1.8168378E-02
       1.9288198E-02
       2.0909661E-02
       1.7914623E-02
       1.4252116E-02
       1.6448248E-02
       1.7781689E-02
       1.1191089E-03
       1.0536936E-02
       1.0042705E-02
       1.2001212E-02
       5.2067610E-03
       5.0051617E-03
       2.3227564E-03
       2.4702185E-03
       1.5307068E-03
       1.8358159E-02
       1.9922135E-02
       1.8566228E-02
       1.5540374E-02
       2.0078005E-02
       1.3352490E-02
       6.3115015E-03
       1.1433845E-02
       6.8870697E-03
       5.5865510E-03
       4.2158552E-03
       6.0807739E-03
       7.4104080E-03
       3.1344536E-02
       3.6002667E-02
       3.3898668E-02
       3.4786338E-02
       3.5992941E-02
       3.4231439E-02
       3.5428276E-02
       3.6598693E-02
       3.6284002E-02
       3.7573536E-02
       3.5612371E-02
       3.7020480E-02
       3.7972012E-02
       3.7473196E-02
       3.6875188E-02
       3.7138550E-02
       3.6088161E-02
       3.4497080E-02
       3.3862878E-02
       3.3659976E-02
       3.3624793E-02
       3.4863200E-02
       3.5301181E-02
       3.5650148E-02
       3.1660483E-02
       2.8209470E-02
       3.1926305E-02
       3.0217936E-02
       2.8609519E-02
       3.4690324E-02
       3.6259949E-02
       3.5801245E-02
       3.5298391E-02
       3.5127573E-02
       3.6009112E-02
       3.7537960E-02
       3.6953394E-02
       3.4638141E-02
       3.6730966E-02
       3.7293818E-02
       3.7655577E-02
       3.6905423E-02
       3.5343854E-02
       3.5697883E-02
       3.8779197E-02
       3.6790876E-02
       3.8625194E-02
       3.8208664E-02
       3.8167934E-02
       3.8154825E-02
       3.8891649E-02
       3.8434430E-02
       3.8112978E-02
       3.8082754E-02
       3.8589840E-02
       3.9347508E-02
       3.8972020E-02
       3.9156600E-02
       3.8226360E-02
       3.9635965E-02
       3.7963932E-02
       3.9233641E-02
       3.6605897E-02
       3.8939766E-02
       3.9504125E-02
       3.9860869E-02
       3.9773122E-02
       4.0089120E-02
       3.9906270E-02
       3.9279244E-02
       3.8855535E-02
       3.7515923E-02
       3.8498291E-02
       3.9969261E-02
       4.0044658E-02
       4.0069408E-02
       4.0282796E-02
       4.0195383E-02
       3.9347158E-02
       3.9978530E-02
       3.6987866E-02
       3.7895415E-02
       4.0175891E-02
       4.0140988E-02
       3.9766240E-02
       4.0036619E-02
       4.0181222E-02
       3.5706162E-02
       3.7949226E-02
       4.0331183E-02
       3.7197440E-02
       3.8985558E-02
       4.0262677E-02
       4.0251919E-02
       3.5474091E-02
       3.8634059E-02
       3.9165269E-02
       4.0122855E-02
       4.0058535E-02
       4.0145441E-02
       4.0326306E-02
       4.0187923E-02
       3.6322866E-02
       3.5554699E-02
       3.6599932E-02
       3.3497854E-02
       3.6777551E-02
       3.4652850E-02
       3.4960189E-02
       3.4239589E-02
       4.0349313E-02
       4.0273164E-02
       3.3540449E-02
       4.0260775E-02
       4.0417910E-02
       3.9748972E-02
       4.0288174E-02
       3.2254665E-02
       3.3976319E-02
       3.3015685E-02
       3.1271182E-02
       3.2320116E-02
       3.2255996E-02
       4.0392578E-02
       4.0357777E-02
       4.0401012E-02
       3.9985526E-02
       3.1289954E-02
       3.0243912E-02
       4.0317699E-02
       4.0370751E-02
       4.0076200E-02
       3.9353456E-02
       3.0413844E-02
       3.9889513E-02
       3.9795703E-02
       3.9646202E-02
       3.1633896E-02
       3.9816957E-02
       4.0095090E-02
       3.8995805E-02
       4.0328044E-02
       3.9379743E-02
       4.0158966E-02
       4.0271941E-02
       4.0357744E-02
       4.0451096E-02
       4.0421096E-02
       4.0418499E-02
       4.0437374E-02
       4.0439786E-02
       4.0402151E-02
       4.0386606E-02
       4.0443989E-02
       4.0453773E-02
       3.1175372E-02
       1.1813193E-02
       9.2326241E-03
       3.9531777E-03
       7.2026106E-03
       4.4224118E-03
       6.3163545E-03
       6.0490743E-03
       7.7341945E-03
       8.0766962E-03
       7.2055389E-03
       8.7848663E-03
       6.3331597E-05
       4.7199141E-04
       4.8595431E-03
       5.3418921E-03
       3.2257307E-03
       1.5274272E-03
       5.6613295E-03
       8.1075045E-04
       8.1336521E-04
       3.6421146E-03
       1.8950843E-03
       9.0169955E-04
       1.7748949E-03
       1.1225410E-04
       2.8861898E-02
       2.0634392E-02
       1.9613302E-02
       2.1873172E-02
       2.0398318E-02
       2.0974325E-02
       2.2136542E-02
       2.6873253E-02
       2.4636815E-02
       2.5895760E-02
       2.7110862E-02
       2.4891043E-02
       2.5830564E-02
       2.3674877E-02
       2.6075358E-02
       2.7395698E-02
       2.6796923E-02
       2.8515014E-02
       2.9620217E-02
       2.8588095E-02
       2.6946202E-02
       2.4754662E-02
       2.5856314E-02
       2.5024374E-02
       2.5819734E-02
       2.7413161E-02
       2.6254987E-02
       2.5038061E-02
       2.6271823E-02
       2.5410296E-02
       2.6375394E-02
       2.3155107E-02
       2.6213738E-02
       2.3572985E-02
       2.8045503E-02
       2.4962362E-02
       2.7402501E-02
       2.8700527E-02
       2.4499003E-02
       2.4874886E-02
       2.6556888E-02
       2.8420366E-02
       3.0496230E-02
       2.9335760E-02
       2.8288066E-02
       3.0981423E-02
       2.9112597E-02
       3.0219536E-02
       2.9312534E-02
       2.7941559E-02
       3.0068941E-02
       2.9611571E-02
       3.1143456E-02
       2.9380345E-02
       3.0474116E-02
       3.2903141E-02
       3.1674536E-02
       3.3043780E-02
       1.4796761E-02
       1.6436575E-02
       1.7678338E-02
       1.8359678E-02
       1.7635263E-02
       1.5806293E-02
       1.0174708E-02
       3.1495675E-03
       9.9602800E-03
       6.8262590E-03
       1.8202705E-02
       2.1461950E-02
       1.5239994E-02
       1.4193643E-02
       1.9049855E-02
       1.9208410E-02
       1.7774689E-02
       1.5847562E-02
       1.6381342E-02
       1.7038411E-02
       1.6934594E-02
       1.8392562E-02
       1.3852323E-02
       1.3679456E-02
       1.5265229E-02
       1.4930402E-02
       1.2637882E-02
       1.3847809E-02
       1.4597185E-02
       1.0862274E-02
       9.1220010E-03
       1.2509140E-02
       1.1428824E-02
       1.2410664E-02
       1.2743704E-02
       1.6164358E-02
       1.1141738E-02
       1.2795646E-02
       5.8412409E-03
       2.9655165E-03
       3.3971149E-03
       1.9996669E-03
       2.1124569E-02
       2.2155610E-02
       2.1814355E-02
       7.3305266E-03
       8.6005835E-03
       9.3418767E-03
       6.4922292E-03
       6.7844385E-03
       4.8030323E-03
       3.1913005E-02
       3.0954712E-02
       3.2789739E-02
       3.0780394E-02
       3.3250529E-02
       2.8441804E-02
       3.4488465E-02
       2.8134140E-02
       3.5586286E-02
       3.3941743E-02
       3.0542479E-02
       3.1719857E-02
       1.9006935E-02
       3.4534568E-02
       2.4892090E-02
       2.5049614E-02
       9.5163800E-03
       2.3290117E-02
       3.6583210E-02
       1.5334170E-02
       1.3129259E-02
       1.6192879E-02
       1.6082121E-02
       3.4336967E-02
       3.5986847E-02
       2.7696983E-02
       2.6101030E-02
       3.6455341E-02
       3.8754546E-02
       3.8645047E-02
       3.6138684E-02
       3.8676727E-02
       3.9796174E-02
       3.9630778E-02
       4.0378510E-02
       4.0224599E-02
       4.0374228E-02
       3.9533336E-02
       3.9375281E-02
       3.9213534E-02
       3.9666859E-02
       3.9963398E-02
       3.9756700E-02
       3.9962850E-02
       3.9484363E-02
       3.7283210E-02
       3.8431228E-02
       3.7871606E-02
       3.9228221E-02
       4.0445045E-02
       4.0429024E-02
       4.0430846E-02
       4.0420609E-02
       4.0416003E-02
       4.0270495E-02
       4.0454943E-02
       8.3654804E-03
       5.9250442E-04
       2.6824620E-03
       1.2789129E-04
       2.2496385E-02
       2.3357277E-02
       2.1129429E-02
       2.2229867E-02
       2.2774719E-02
       2.8635302E-02
       3.1294390E-02
       3.0829034E-02
       2.3560929E-02
       2.2432058E-02
       2.1566275E-02
       2.7910546E-02
       2.7145620E-02
       2.4854352E-02
       3.0872311E-02
       3.4285940E-02
       5.0434737E-03
       2.3337218E-03
       7.0430353E-03
       3.5247776E-03
       4.5348148E-03
       9.4194096E-03
       7.3867337E-04
       4.2592830E-03
       2.2296340E-04
       6.8318002E-04
       5.1854735E-04
       1.0410222E-03
       5.6533909E-04
       1.8951229E-03
       9.7835921E-05
       1.1934712E-02
       1.2986425E-02
       6.8491330E-03
       9.2878690E-03
       2.0033938E-02
       2.0441531E-02
       2.2116277E-02
       2.2095289E-02
       2.2967188E-02
       2.3911984E-02
       2.4396504E-02
       1.3899714E-02
       1.3597135E-02
       1.6566326E-02
       1.6671935E-02
       9.7201750E-03
       1.4441467E-02
       1.5424830E-02
       7.2771445E-03
       1.5006696E-02
       1.6747932E-02
       1.8179295E-02
       1.7979320E-02
       1.9462422E-02
       1.7743883E-02
       7.1350562E-04
       1.9564596E-02
       1.6076249E-02
       1.9235361E-02
       1.5192814E-02
       1.5382421E-02
       1.4886374E-02
       9.2986315E-03
       1.2681358E-02
       1.1382255E-02
       1.1554182E-02
       1.1043884E-02
       5.9620314E-03
       1.5680805E-03
       1.8748051E-02
       1.7842900E-02
       2.0120117E-02
       1.3764225E-02
       1.4031876E-02
       1.3205987E-02
       1.5389889E-02
       1.4563101E-02
       1.3844135E-02
       1.6859018E-02
       1.0192970E-02
       1.8832214E-03
       1.4325531E-03
       2.5406551E-02
       2.0125948E-02
       1.3722743E-02
       1.6158112E-02
       1.2718156E-02
       1.8901608E-02
       2.1568829E-02
       2.0021055E-02
       3.7396485E-02
       3.9428412E-02
       3.9442140E-02
       3.9643272E-02
       3.9574779E-02
       3.9803687E-02
       3.9277102E-02
       3.9246178E-02
       3.9617901E-02
       3.9251556E-02
       4.0391392E-02
       3.8795602E-02
       4.0194120E-02
       3.5487296E-02
       3.7426836E-02
       3.9523364E-02
       3.9419065E-02
       3.9732510E-02
       3.9225128E-02
       3.8693495E-02
       3.9865730E-02
       3.3929197E-02
       3.9944453E-02
       4.0061222E-02
       3.6973420E-02
       3.5885239E-02
       4.0217910E-02
       4.0250813E-02
       3.9909980E-02
       4.0185543E-02
       4.0073983E-02
       3.2474872E-02
       4.0378988E-02
       3.8397980E-02
       4.0290266E-02
       3.6393220E-02
       4.0029958E-02
       4.0362646E-02
       4.0168555E-02
       4.0193006E-02
       4.0315894E-02
       3.9780802E-02
       4.0427540E-02
       3.8391593E-02
       4.0398482E-02
       3.7862530E-02
       3.8044461E-02
       4.0441398E-02
       4.0351176E-02
       3.9005825E-02
       3.7231554E-02
       9.6444705E-03
       4.0284621E-02
       1.0193576E-02
       4.0340807E-02
       3.8490299E-02
       4.0435092E-02
       3.6529151E-02
       3.5200348E-02
       4.0405375E-02
       4.0458084E-02
       4.0435141E-02
       4.0444589E-02
       4.0341733E-02
       4.0401465E-02
       3.7480339E-02
       3.7689669E-02
       3.7860219E-02
       3.6289153E-02
       3.5377830E-02
       4.0016570E-02
       3.5942770E-02
       3.8114155E-02
       3.5329393E-02
       3.8141843E-02
       3.6518619E-02
       4.0451782E-02
       3.8981401E-02
       4.0109849E-02
       3.8537930E-02
       3.9949345E-02
       3.8681086E-02
       3.8018693E-02
       3.6998876E-02
       3.6635914E-02
       3.8062331E-02
       3.9275559E-02
       3.8818034E-02
       3.8828725E-02
       3.8853471E-02
       3.9391969E-02
       3.8064261E-02
       3.9541225E-02
       3.7122491E-02
       3.7545936E-02
       3.8091887E-02
       3.7103680E-02
       3.8481097E-02
       3.9042093E-02
       3.8919825E-02
       3.8282249E-02
       3.7358945E-02
       3.6833285E-02
       3.6348349E-02
       3.5031881E-02
       3.8159736E-02
       3.7869911E-02
       3.9649715E-02
       4.0442587E-02
       4.0389585E-02
       4.0188310E-02
       4.0132890E-02
       4.0446192E-02
       4.0454611E-02
       4.0437363E-02
       4.0448715E-02
       4.0388812E-02
       4.0455431E-02
       4.0421021E-02
       4.0439110E-02
       4.0335991E-02
       4.0455974E-02
       4.0437094E-02
       4.0454658E-02
       4.0394114E-02
       4.0253398E-02
       4.0335515E-02
       4.0048979E-02
       4.0349408E-02
       4.0218425E-02
       3.9873021E-02
       4.0426100E-02
       4.0402353E-02