# vtk DataFile Version 3.0
# Solution du M1 TR
ASCII
DATASET UNSTRUCTURED_GRID
POINTS   3280  float
0.0000000E+00  0.0000000E+00  0.2365969E-01
0.2000000E+01  0.0000000E+00  0.1960303E+01
0.2000000E+01  0.1000000E+01  0.1960445E+01
0.0000000E+00  0.1000000E+01  0.2368570E-01
0.1000000E+01  0.0000000E+00  0.9928335E+00
0.1000000E+01  0.1000000E+01  0.9919022E+00
0.1500000E+01  0.5000000E+00  0.1494010E+01
0.1500000E+01  0.0000000E+00  0.1472540E+01
0.1723284E+01  0.3570951E+00  0.1698930E+01
0.1500000E+01  0.2500000E+00  0.1494031E+01
0.1515103E+01  0.2763186E+00  0.1508315E+01
0.1594866E+01  0.2826386E+00  0.1582164E+01
0.1562500E+01  0.1875000E+00  0.1551270E+01
0.1534357E+01  0.1819434E+00  0.1524403E+01
0.1561083E+01  0.3343258E+00  0.1551199E+01
0.1750000E+01  0.0000000E+00  0.1715428E+01
0.1503267E+01  0.1622339E+00  0.1494167E+01
0.1514910E+01  0.2261192E+00  0.1507646E+01
0.1610795E+01  0.1290247E+00  0.1590260E+01
0.1539062E+01  0.1536458E+00  0.1526547E+01
0.1510772E+01  0.1982718E+00  0.1502890E+01
0.1541862E+01  0.2179813E+00  0.1532708E+01
0.1475030E+01  0.2178147E+00  0.1470131E+01
0.1539206E+01  0.2578835E+00  0.1530514E+01
0.1521085E+01  0.2465697E+00  0.1513519E+01
0.1496499E+01  0.2146241E+00  0.1490127E+01
0.1481433E+01  0.1870688E+00  0.1474739E+01
0.1586261E+01  0.1960616E+00  0.1572847E+01
0.1460896E+01  0.2899333E+00  0.1457534E+01
0.1542195E+01  0.2867649E+00  0.1533431E+01
0.1486080E+01  0.2754813E+00  0.1481085E+01
0.1536278E+01  0.3247610E+00  0.1528235E+01
0.1510131E+01  0.3295675E+00  0.1503855E+01
0.1455545E+01  0.2514402E+00  0.1452276E+01
0.1610995E+01  0.1909452E+00  0.1595608E+01
0.1564462E+01  0.2395252E+00  0.1553990E+01
0.1571524E+01  0.3026484E+00  0.1560601E+01
0.1613657E+01  0.2555806E+00  0.1599369E+01
0.1633998E+01  0.2714643E+00  0.1617783E+01
0.1534973E+01  0.3650914E+00  0.1526260E+01
0.1583157E+01  0.2286349E+00  0.1570839E+01
0.1586501E+01  0.1581416E+00  0.1571374E+01
0.1651985E+01  0.2274641E+00  0.1634083E+01
0.1619170E+01  0.2936434E+00  0.1604248E+01
0.1678889E+01  0.2641389E+00  0.1658443E+01
0.1642286E+01  0.2930521E+00  0.1625115E+01
0.1526415E+01  0.3446283E+00  0.1518712E+01
0.1662420E+01  0.3044259E+00  0.1643416E+01
0.1636786E+01  0.2469276E+00  0.1620524E+01
0.1588953E+01  0.3366240E+00  0.1576820E+01
0.1616427E+01  0.3314099E+00  0.1601932E+01
0.1598305E+01  0.3102698E+00  0.1585235E+01
0.1655410E+01  0.2614708E+00  0.1637075E+01
0.1487553E+01  0.3072167E+00  0.1482543E+01
0.1520126E+01  0.3036443E+00  0.1513039E+01
0.1477894E+01  0.2544664E+00  0.1473465E+01
0.1567847E+01  0.2133479E+00  0.1556498E+01
0.1663947E+01  0.3299725E+00  0.1645397E+01
0.1567022E+01  0.2696000E+00  0.1556498E+01
0.1678598E+01  0.3509559E+00  0.1658360E+01
0.1611933E+01  0.3827205E+00  0.1596793E+01
0.1640491E+01  0.3197373E+00  0.1623843E+01
0.1588015E+01  0.2526666E+00  0.1575735E+01
0.1708471E+01  0.3144917E+00  0.1685503E+01
0.1606944E+01  0.3564315E+00  0.1592850E+01
0.1604614E+01  0.2314093E+00  0.1590572E+01
0.1643491E+01  0.3631133E+00  0.1626274E+01
0.2000000E+01  0.5000000E+00  0.1960541E+01
0.1494727E+01  0.3621796E+00  0.1489027E+01
0.1701807E+01  0.3477237E+00  0.1679278E+01
0.1572156E+01  0.3701847E+00  0.1560864E+01
0.1688392E+01  0.3285111E+00  0.1667477E+01
0.1695932E+01  0.3904821E+00  0.1673734E+01
0.1636337E+01  0.3418163E+00  0.1620154E+01
0.1505941E+01  0.9448485E-01  0.1484043E+01
0.1423727E+01  0.1910920E+00  0.1420177E+01
0.1481447E+01  0.3359634E+00  0.1476929E+01
0.1441613E+01  0.3726133E+00  0.1439358E+01
0.1466699E+01  0.3599060E+00  0.1462930E+01
0.1476682E+01  0.4107296E+00  0.1472250E+01
0.1434448E+01  0.3273535E+00  0.1432774E+01
0.1464523E+01  0.3867258E+00  0.1461015E+01
0.1456903E+01  0.3373583E+00  0.1453950E+01
0.1454188E+01  0.3132491E+00  0.1451180E+01
0.1424069E+01  0.2919612E+00  0.1422528E+01
0.1490969E+01  0.3884111E+00  0.1485656E+01
0.1428051E+01  0.4202828E+00  0.1426812E+01
0.1513790E+01  0.3782958E+00  0.1506714E+01
0.1547789E+01  0.4092466E+00  0.1538136E+01
0.1535154E+01  0.3889763E+00  0.1526423E+01
0.1512699E+01  0.4170463E+00  0.1505942E+01
0.1441554E+01  0.3983607E+00  0.1439498E+01
0.1395941E+01  0.3853832E+00  0.1396643E+01
0.1420578E+01  0.3854393E+00  0.1419733E+01
0.1408336E+01  0.3518173E+00  0.1408127E+01
0.1549967E+01  0.3074339E+00  0.1540894E+01
0.1651639E+01  0.4114272E+00  0.1633170E+01
0.1668616E+01  0.3788978E+00  0.1649092E+01
0.1674624E+01  0.4027285E+00  0.1654489E+01
0.1706988E+01  0.4343785E+00  0.1683498E+01
0.1673984E+01  0.4357547E+00  0.1653268E+01
0.1695270E+01  0.4139894E+00  0.1673168E+01
0.1737273E+01  0.4034108E+00  0.1711138E+01
0.1645630E+01  0.3875965E+00  0.1628061E+01
0.1625874E+01  0.4052508E+00  0.1609664E+01
0.1627808E+01  0.4540126E+00  0.1611719E+01
0.1587158E+01  0.4136289E+00  0.1574365E+01
0.1633718E+01  0.4293591E+00  0.1617128E+01
0.1651607E+01  0.4466828E+00  0.1633102E+01
0.1605650E+01  0.4356658E+00  0.1591283E+01
0.1682168E+01  0.4808869E+00  0.1659881E+01
0.1671711E+01  0.4594749E+00  0.1651145E+01
0.1698428E+01  0.4596870E+00  0.1675600E+01
0.1646221E+01  0.4851828E+00  0.1627517E+01
0.1607747E+01  0.4151289E+00  0.1593171E+01
0.1584205E+01  0.4841185E+00  0.1570818E+01
0.1747573E+01  0.4622079E+00  0.1720376E+01
0.1568396E+01  0.4481495E+00  0.1556744E+01
0.1601760E+01  0.4629165E+00  0.1587711E+01
0.1723356E+01  0.4540167E+00  0.1698309E+01
0.1732897E+01  0.4294241E+00  0.1706839E+01
0.1722218E+01  0.4972746E+00  0.1696568E+01
0.1715121E+01  0.4754441E+00  0.1690330E+01
0.1584567E+01  0.4345797E+00  0.1571961E+01
0.1563465E+01  0.4258523E+00  0.1552754E+01
0.1534166E+01  0.4440258E+00  0.1525358E+01
0.1615090E+01  0.4918227E+00  0.1599184E+01
0.1717469E+01  0.4134541E+00  0.1693216E+01
0.1718488E+01  0.3909170E+00  0.1693997E+01
0.1741353E+01  0.3769080E+00  0.1715054E+01
0.1781199E+01  0.4241746E+00  0.1751453E+01
0.2000000E+01  0.2500000E+00  0.1960359E+01
0.1756308E+01  0.4199875E+00  0.1728607E+01
0.1762447E+01  0.3937207E+00  0.1734356E+01
0.1765097E+01  0.4438197E+00  0.1736465E+01
0.1807974E+01  0.4625425E+00  0.1775544E+01
0.1789176E+01  0.4471344E+00  0.1758412E+01
0.1514158E+01  0.1287364E+00  0.1499943E+01
0.1777674E+01  0.4803377E+00  0.1748045E+01
0.1811145E+01  0.4395021E+00  0.1779075E+01
0.1850404E+01  0.4566449E+00  0.1815649E+01
0.1748483E+01  0.3522599E+00  0.1721789E+01
0.1731235E+01  0.3304535E+00  0.1706231E+01
0.1777870E+01  0.3654441E+00  0.1748940E+01
0.1748149E+01  0.2821176E+00  0.1721518E+01
0.1732875E+01  0.3039003E+00  0.1707691E+01
0.1708314E+01  0.2807181E+00  0.1685537E+01
0.1767650E+01  0.3193756E+00  0.1739659E+01
0.1372661E+01  0.1704076E+00  0.1369954E+01
0.1411157E+01  0.2494459E+00  0.1410287E+01
0.1448000E+01  0.2246098E+00  0.1444718E+01
0.1360382E+01  0.2278583E+00  0.1361391E+01
0.1433680E+01  0.2431125E+00  0.1431600E+01
0.1388814E+01  0.2314916E+00  0.1388593E+01
0.1314549E+01  0.2124991E+00  0.1317265E+01
0.1404157E+01  0.2007613E+00  0.1402421E+01
0.1415035E+01  0.1072182E+00  0.1403063E+01
0.1520299E+01  0.1091515E+00  0.1501908E+01
0.1459010E+01  0.1690672E+00  0.1452533E+01
0.1436337E+01  0.2690050E+00  0.1434189E+01
0.1443480E+01  0.1263360E+00  0.1433614E+01
0.1625000E+01  0.0000000E+00  0.1593468E+01
0.1414954E+01  0.2197329E+00  0.1413123E+01
0.1335299E+01  0.2266424E+00  0.1337361E+01
0.1396801E+01  0.1612344E+00  0.1392111E+01
0.1792033E+01  0.3934232E+00  0.1761818E+01
0.1541310E+01  0.1264947E+00  0.1525457E+01
0.1483859E+01  0.1256971E+00  0.1470446E+01
0.1500341E+01  0.1139400E+00  0.1484122E+01
0.1498380E+01  0.1421255E+00  0.1486432E+01
0.1478242E+01  0.1468909E+00  0.1468638E+01
0.1453147E+01  0.1972183E+00  0.1448602E+01
0.1348833E+01  0.2067866E+00  0.1349796E+01
0.1368157E+01  0.2800764E+00  0.1369632E+01
0.1250000E+01  0.0000000E+00  0.1232705E+01
0.1496272E+01  0.2780308E-01  0.1469582E+01
0.1430228E+01  0.1622338E+00  0.1423983E+01
0.1544491E+01  0.1012427E+00  0.1523125E+01
0.1505524E+01  0.5428530E-01  0.1480218E+01
0.1576405E+01  0.1180891E+00  0.1556790E+01
0.1526885E+01  0.8834234E-01  0.1503010E+01
0.1558557E+01  0.6358195E-01  0.1531876E+01
0.1372206E+01  0.9428859E-01  0.1358561E+01
0.1414069E+01  0.8636887E-01  0.1397784E+01
0.1351230E+01  0.1581055E+00  0.1348597E+01
0.1371634E+01  0.2528708E+00  0.1372732E+01
0.1392978E+01  0.2694234E+00  0.1393157E+01
0.1321668E+01  0.2603105E+00  0.1325196E+01
0.1392566E+01  0.3027057E+00  0.1393006E+01
0.1345601E+01  0.2495441E+00  0.1347819E+01
0.1349996E+01  0.1827855E+00  0.1349500E+01
0.1475238E+01  0.9618066E-01  0.1456248E+01
0.1487372E+01  0.4556180E+00  0.1482314E+01
0.1432024E+01  0.3509343E+00  0.1430294E+01
0.1619231E+01  0.5383449E+00  0.1601912E+01
0.1532505E+01  0.4233173E+00  0.1524099E+01
0.1547332E+01  0.4788657E+00  0.1537265E+01
0.1627786E+01  0.4750493E+00  0.1610976E+01
0.1750658E+01  0.4911384E+00  0.1723055E+01
0.1783313E+01  0.5336292E+00  0.1752581E+01
0.1744147E+01  0.5299352E+00  0.1716273E+01
0.1772978E+01  0.5077787E+00  0.1743189E+01
0.1739682E+01  0.5092411E+00  0.1712368E+01
0.1715917E+01  0.5251974E+00  0.1690376E+01
0.1809547E+01  0.4999146E+00  0.1776858E+01
0.1486188E+01  0.5335558E+00  0.1480531E+01
0.1695320E+01  0.5058771E+00  0.1671893E+01
0.1793562E+01  0.5145404E+00  0.1761993E+01
0.1827482E+01  0.5355643E+00  0.1793779E+01
0.1805457E+01  0.5332234E+00  0.1773118E+01
0.1812320E+01  0.5734372E+00  0.1779767E+01
0.1794794E+01  0.5557356E+00  0.1763381E+01
0.1637325E+01  0.5533192E+00  0.1618354E+01
0.1761146E+01  0.5591762E+00  0.1732069E+01
0.1789115E+01  0.5788851E+00  0.1757960E+01
0.1693317E+01  0.6123782E+00  0.1670619E+01
0.1522396E+01  0.5359490E+00  0.1513828E+01
0.1814654E+01  0.6254783E+00  0.1781992E+01
0.1726166E+01  0.5505978E+00  0.1699514E+01
0.1691322E+01  0.5307786E+00  0.1668101E+01
0.1516987E+01  0.5143680E+00  0.1509246E+01
0.1661909E+01  0.5147686E+00  0.1640897E+01
0.1761865E+01  0.6508066E+00  0.1733235E+01
0.1692174E+01  0.5698207E+00  0.1668944E+01
0.1780214E+01  0.6037461E+00  0.1749962E+01
[...]
POINT_DATA    3280
SCALARS hauteur float
LOOKUP_TABLE DEFAULT
       2.3659689E-02
       1.6977335E-04
       3.1212759E-04
       2.3685702E-02
       1.2766963E-02
       1.1835593E-02
       2.3910415E-02
       2.4397453E-03
       9.9973868E-03
       2.3931390E-02
       2.3412644E-02
       1.9089853E-02
       1.9915629E-02
       2.0630453E-02
       2.1233291E-02
       3.1142778E-04
       2.0864561E-02
       2.2933237E-02
       1.1573645E-02
       1.8163072E-02
       2.2232720E-02
       2.1580992E-02
       2.4503677E-02
       2.1990131E-02
       2.2754715E-02
       2.3457859E-02
       2.2836684E-02
       1.8205039E-02
       2.5758483E-02
       2.1977754E-02
       2.4628172E-02
       2.2580317E-02
       2.3826237E-02
       2.5745307E-02
       1.6725612E-02
       2.0712565E-02
       2.0403545E-02
       1.7877151E-02
       1.6355756E-02
       2.1883572E-02
       1.9239191E-02
       1.6497252E-02
       1.5027809E-02
       1.7354165E-02
       1.3019880E-02
       1.5564818E-02
       2.2724381E-02
       1.4133421E-02
       1.6364550E-02
       1.9540732E-02
       1.7726350E-02
       1.8789789E-02
       1.4662845E-02
       2.4641923E-02
       2.3213755E-02
       2.5030303E-02
       1.9903790E-02
       1.4618313E-02
       2.0711466E-02
       1.3221356E-02
       1.6990775E-02
       1.6052446E-02
       1.9374915E-02
       1.1087935E-02
       1.7938052E-02
       1.7942840E-02
       1.5543176E-02
       4.0808266E-04
       2.4094614E-02
       1.1393493E-02
       2.0046775E-02
       1.2740490E-02
       1.1607378E-02
       1.6434534E-02
       8.1212345E-03
       2.4828931E-02
       2.5011820E-02
       2.6481487E-02
       2.5467176E-02
       2.5002854E-02
       2.6919769E-02
       2.5685256E-02
       2.6088287E-02
       2.5978536E-02
       2.6845065E-02
       2.4407642E-02
       2.7227592E-02
       2.3099491E-02
       2.1199432E-02
       2.1870042E-02
       2.3396043E-02
       2.6678197E-02
       2.8528386E-02
       2.7472177E-02
       2.7864158E-02
       2.1824045E-02
       1.4453907E-02
       1.3737449E-02
       1.3245897E-02
       1.0536519E-02
       1.2652332E-02
       1.1691286E-02
       8.4945041E-03
       1.5234042E-02
       1.6199329E-02
       1.6359256E-02
       1.8844752E-02
       1.5975949E-02
       1.4417462E-02
       1.7639565E-02
       1.1244392E-02
       1.2756413E-02
       1.1027524E-02
       1.4110905E-02
       1.7471382E-02
       1.8191640E-02
       7.6386116E-03
       1.9611298E-02
       1.7879356E-02
       9.3061659E-03
       8.4846164E-03
       8.6801830E-03
       9.3974154E-03
       1.8979474E-02
       2.0454008E-02
       2.1773024E-02
       1.6288652E-02
       9.9826556E-03
       9.7635507E-03
       8.4118970E-03
       5.7591032E-03
       2.2629656E-04
       7.3078562E-03
       7.0407917E-03
       6.5527615E-03
       3.6091152E-03
       4.9011739E-03
       1.5966772E-02
       5.8061037E-03
       4.0319731E-03
       2.1298859E-03
       8.1596783E-03
       9.5057875E-03
       6.5086205E-03
       8.2155767E-03
       9.3574179E-03
       1.1275883E-02
       7.2442824E-03
       2.4655169E-02
       2.7259813E-02
       2.5581442E-02
       2.8125827E-02
       2.6497965E-02
       2.7462593E-02
       2.8919973E-02
       2.6253681E-02
       1.6234795E-02
       1.1913073E-02
       2.2606273E-02
       2.6483190E-02
       1.8907821E-02
       8.6027457E-04
       2.6374597E-02
       2.8678782E-02
       2.3152679E-02
       5.5064724E-03
       1.4870791E-02
       1.6164921E-02
       1.3688519E-02
       1.7919959E-02
       1.9862010E-02
       2.4420408E-02
       2.7849780E-02
       2.8746437E-02
       7.6216057E-03
       3.1361162E-03
       2.2263971E-02
       9.4206665E-03
       4.7046345E-03
       1.1808830E-02
       6.5615975E-03
       4.3866280E-03
       1.3707829E-02
       1.1902809E-02
       2.4301554E-02
       2.8439187E-02
       2.7945526E-02
       2.9873603E-02
       2.8198055E-02
       2.9039615E-02
       2.6413724E-02
       1.0416454E-02
       2.4590125E-02
       2.6815033E-02
       1.4957348E-02
       2.2142554E-02
       2.0776274E-02
       1.5637674E-02
       7.2936993E-03
       4.8159532E-03
       6.8926898E-03
       5.5526979E-03
       7.3634850E-03
       8.6633201E-03
       3.3814905E-03
       2.3968448E-02
       1.0366190E-02
       4.1832263E-03
       2.7255780E-03
       3.6495434E-03
       3.5730945E-03
       4.3640454E-03
       1.3666494E-02
       6.0290533E-03
       4.5087169E-03
       1.1056024E-02
       2.1778541E-02
       3.5108748E-03
       7.7559449E-03
       1.0492870E-02
       2.2498012E-02
       1.2115786E-02
       6.4894362E-03
       1.0501117E-02
       5.2345624E-03
       1.9280760E-02
       1.1713014E-02
       6.7833194E-03
       1.7810900E-02
       1.3612732E-02
       7.8019941E-03
       7.4237226E-03
       1.0370463E-02
       1.0861252E-02
       3.2115312E-03
       5.0868976E-03
       4.8428029E-04
       8.6324266E-03
       2.0697784E-03
       5.4968328E-03
       6.2379497E-03
       1.2557841E-02
       9.6806744E-03
       4.5127113E-03
       2.9605939E-03
       3.0316297E-03
       4.0173125E-03
       4.8696162E-03
       5.0096422E-03
       6.6276238E-03
       1.8452979E-02
       2.6870049E-02
       1.3453111E-02
       1.5807297E-02
       1.8372267E-02
       2.1498946E-02
       4.1815844E-03
       6.6582598E-03
       3.9747837E-03
       1.6785760E-03
       1.4619469E-03
       2.2999918E-03
       7.9029608E-03
       7.4447691E-03
       1.6794763E-03
       1.1350580E-02
       3.2478615E-03
       1.0263590E-02
       2.3580863E-03
       5.8348159E-04
       6.6290715E-03
       1.4574019E-02
       1.3376719E-02
       1.5726561E-02
       6.6220500E-03
       1.6024092E-02
       2.1875961E-02
       2.0265924E-02
       2.6093556E-02
       2.4451147E-02
       2.1422785E-02
       2.5109677E-02
       1.0806354E-02
       4.7821730E-03
       2.0876621E-02
       7.3312217E-03
       1.9879721E-02
       4.8050473E-03
       2.7536788E-02
       2.7599581E-02
       2.8527559E-02
       2.8939619E-02
       2.9593366E-02
       2.4382998E-02
       2.3117535E-02
       2.5832914E-02
       2.2170674E-02
       2.2236794E-02
       1.7014789E-02
       2.0663648E-02
       1.3275357E-02
       2.0797677E-02
       1.9462442E-02
       4.2423847E-03
       2.9070660E-03
       2.4076643E-03
       5.8141685E-03
       1.2438067E-02
       2.7180639E-03
       3.8977248E-03
       1.4142714E-02
       1.7155892E-02
       4.1730392E-03
       1.0630871E-02
       4.3220193E-03
       8.9954514E-03
       7.1172927E-03
       8.8967026E-03
       8.4892048E-03
       4.1132624E-03
       2.3123717E-03
       9.6394136E-05
       5.6289905E-03
       1.3405243E-03
       8.2814710E-03
       4.9115194E-03
       1.3906960E-02
       4.1267428E-04
       2.8220856E-03
       7.2158326E-03
       6.5663129E-03
       1.2224063E-02
       8.9788279E-03
       2.6329200E-03
       1.5890761E-02
       1.2405098E-03
       1.0763524E-02
       1.9350993E-02
       1.1225358E-03
       6.2219030E-04
       1.2298698E-02
       1.2733911E-02
       1.2615982E-02
       1.2289870E-02
       6.6835664E-03
       1.5265995E-02
       1.4507778E-02
       1.4344916E-02
       1.6506157E-02
       1.3809583E-02
       8.8009132E-03
       1.2439669E-02
       1.1142152E-02
       4.1519838E-04
       2.8164411E-03
       2.9068263E-03
       4.2156652E-03
       2.3231239E-03
       2.3676411E-03
       1.0642842E-03
       1.0474775E-03
       7.1863868E-04
       1.2746202E-02
       1.5064753E-02
       1.4679611E-02
       1.1416930E-02
       1.6211226E-02
       9.5800712E-03
       3.5614121E-03
       7.6607639E-03
       4.1431710E-03
       2.9898248E-03
       1.9946322E-03
       3.0734114E-03
       3.8044271E-03
       2.7134734E-02
       3.0383869E-02
       2.8889487E-02
       2.9669100E-02
       3.0611413E-02
       2.9392161E-02
       3.0306561E-02
       3.1460020E-02
       3.1022817E-02
       3.2105326E-02
       3.0688636E-02
       3.1657536E-02
       3.2857777E-02
       3.2186970E-02
       3.2061119E-02
       3.2082030E-02
       3.1227878E-02
       2.9894101E-02
       2.9348408E-02
       2.9432194E-02
       2.9300207E-02
       3.0275902E-02
       3.0965351E-02
       3.1034023E-02
       2.7688339E-02
       2.4738819E-02
       2.7855085E-02
       2.6342499E-02
       2.4930512E-02
       2.9318965E-02
       3.0621875E-02
       3.0300989E-02
       2.9766516E-02
       2.9595140E-02
       3.0358289E-02
       3.1936288E-02
       3.1272146E-02
       2.9191655E-02
       3.1074965E-02
       3.1778189E-02
       3.2060985E-02
       3.1325664E-02
       2.9794229E-02
       3.0204700E-02
       3.3539977E-02
       3.1329355E-02
       3.3339085E-02
       3.2731485E-02
       3.2714436E-02
       3.2849216E-02
       3.4014704E-02
       3.3405778E-02
       3.3321911E-02
       3.2623595E-02
       3.3236481E-02
       3.4493618E-02
       3.3814814E-02
       3.4234316E-02
       3.3244724E-02
       3.5417700E-02
       3.2684998E-02
       3.4655196E-02
       3.1449349E-02
       3.3906514E-02
       3.4908488E-02
       3.5764527E-02
       3.5547632E-02
       3.6686757E-02
       3.6099264E-02
       3.5455620E-02
       3.4415378E-02
       3.2351546E-02
       3.3256368E-02
       3.6157311E-02
       3.6417597E-02
       3.6514073E-02
       3.7537791E-02
       3.7094309E-02
       3.5197259E-02
       3.6915669E-02
       3.1645407E-02
       3.3084844E-02
       3.6953833E-02
       3.6975922E-02
       3.6108523E-02
       3.6778402E-02
       3.7254702E-02
       3.0462171E-02
       3.3007766E-02
       3.8020825E-02
       3.2212499E-02
       3.4438655E-02
       3.7556191E-02
       3.7823247E-02
       3.0500203E-02
       3.3863197E-02
       3.4568754E-02
       3.7358782E-02
       3.7807231E-02
       3.7749987E-02
       3.8767488E-02
       3.8362617E-02
       3.1316319E-02
       3.0417784E-02
       3.1764205E-02
       2.8320760E-02
       3.1868011E-02
       2.9458410E-02
       2.9622793E-02
       2.9204740E-02
       3.8519378E-02
       3.9502730E-02
       2.8217880E-02
       3.8215543E-02
       3.8920381E-02
       3.8106032E-02
       3.9050303E-02
       2.7042412E-02
       2.8699812E-02
       2.7751725E-02
       2.6057567E-02
       2.7135098E-02
       2.7252932E-02
       3.8654844E-02
       3.8138957E-02
       3.9126843E-02
       3.8117866E-02
       2.6096303E-02
       2.5001662E-02
       3.7835600E-02
       3.9598619E-02
       3.8747792E-02
       3.6879567E-02
       2.5204602E-02
       3.9272909E-02
       3.7463594E-02
       3.6759181E-02
       2.6511870E-02
       3.8683592E-02
       3.9383712E-02
       3.7862638E-02
       4.0413179E-02
       3.7970376E-02
       4.0005219E-02
       3.9946875E-02
       3.9996245E-02
       4.0370943E-02
       4.0020707E-02
       3.9568958E-02
       3.9517298E-02
       4.0879248E-02
       4.0437207E-02
       4.1010121E-02
       4.0543263E-02
       4.0813237E-02
       2.6123272E-02
       3.2029331E-03
       2.1126826E-03
       9.8321926E-04
       1.5753228E-03
       1.0172340E-03
       1.4483098E-03
       1.3161650E-03
       1.7965228E-03
       1.9936831E-03
       1.7276842E-03
       2.2916572E-03
       2.3632467E-04
       3.5718708E-04
       1.1293761E-03
       1.2480257E-03
       8.2258587E-04
       5.4393755E-04
       1.3039731E-03
       3.7758943E-04
       4.3257724E-04
       8.7158976E-04
       6.0145428E-04
       3.5691067E-04
       5.3454391E-04
       2.3492902E-04
       2.3880613E-02
       1.2540377E-02
       1.1540675E-02
       1.4398987E-02
       1.3088958E-02
       1.3488836E-02
       1.5403404E-02
       2.1032384E-02
       1.8169332E-02
       2.0505957E-02
       2.1729737E-02
       1.8855706E-02
       1.9952823E-02
       1.7385177E-02
       2.0573228E-02
       2.2293620E-02
       2.1965723E-02
       2.3360855E-02
       2.4492141E-02
       2.3760031E-02
       2.1943666E-02
       1.9474388E-02
       2.0699760E-02
       2.0529187E-02
       2.1002974E-02
       2.2861241E-02
       2.1717234E-02
       2.0870728E-02
       2.1875705E-02
       2.1042553E-02
       2.2224003E-02
       1.8809053E-02
       2.1983551E-02
       1.9946547E-02
       2.3515196E-02
       2.0997539E-02
       2.2930706E-02
       2.4090847E-02
       2.0814776E-02
       2.1057012E-02
       2.2381237E-02
       2.3889274E-02
       2.5492498E-02
       2.4581482E-02
       2.3709554E-02
       2.6131222E-02
       2.4310224E-02
       2.5138226E-02
       2.4462753E-02
       2.3420993E-02
       2.5259994E-02
       2.4962219E-02
       2.6552066E-02
       2.4763574E-02
       2.5828076E-02
       2.7983511E-02
       2.6963069E-02
       2.8310747E-02
       5.6044369E-03
       7.2275424E-03
       8.6910042E-03
       9.5205790E-03
       9.3853641E-03
       9.7340355E-03
       3.0326701E-03
       8.1817593E-04
       3.5091579E-03
       1.5523794E-03
       1.0446403E-02
       1.6350780E-02
       1.0492269E-02
       9.0959656E-03
       1.3129929E-02
       1.3668914E-02
       1.1479374E-02
       8.9417333E-03
       9.4106258E-03
       1.0722695E-02
       1.1224829E-02
       1.3348931E-02
       7.4796295E-03
       5.9014881E-03
       7.7528967E-03
       7.5104930E-03
       5.6476204E-03
       6.4365200E-03
       7.5882200E-03
       3.5529541E-03
       3.3542353E-03
       4.9697813E-03
       3.5424426E-03
       4.4689843E-03
       4.5914760E-03
       8.8220681E-03
       3.6207511E-03
       5.1346014E-03
       2.7926615E-03
       1.3414928E-03
       1.3665764E-03
       8.5216287E-04
       1.6490508E-02
       1.8442112E-02
       1.8280074E-02
       4.2759647E-03
       5.1027259E-03
       5.9350503E-03
       3.5446383E-03
       3.6701651E-03
       2.3423395E-03
       2.7837770E-02
       2.7147823E-02
       2.9044109E-02
       2.7156642E-02
       2.9212030E-02
       2.5373223E-02
       3.0444108E-02
       2.4869940E-02
       3.1569865E-02
       3.0237586E-02
       2.7116498E-02
       2.8475744E-02
       1.6878919E-02
       3.1150314E-02
       2.1771530E-02
       2.2139459E-02
       1.0661063E-02
       2.0765278E-02
       3.2236198E-02
       1.4150593E-02
       9.9040553E-03
       1.4123894E-02
       1.3599793E-02
       3.0760172E-02
       3.2235906E-02
       2.4016284E-02
       2.2459606E-02
       3.0914118E-02
       3.3612872E-02
       3.3915515E-02
       3.0788005E-02
       3.3725570E-02
       3.5937299E-02
       3.5227010E-02
       3.8532572E-02
       3.7247605E-02
       3.9214755E-02
       3.8611309E-02
       3.9189544E-02
       3.8528650E-02
       3.9210201E-02
       4.0313096E-02
       3.9761688E-02
       3.9798486E-02
       3.9865294E-02
       3.6948061E-02
       3.7591638E-02
       3.6013208E-02
       3.7306050E-02
       3.9906743E-02
       4.0103884E-02
       3.9338031E-02
       3.9124494E-02
       3.9487377E-02
       4.0655651E-02
       4.1794566E-02
       1.8987046E-03
       4.4305969E-04
       7.3970549E-04
       3.4716808E-04
       1.5193421E-02
       1.6357948E-02
       1.4659818E-02
       1.6485339E-02
       1.5889276E-02
       2.3298261E-02
       2.6393850E-02
       2.5768116E-02
       1.7710849E-02
       1.6489896E-02
       1.8013260E-02
       2.3261087E-02
       2.2544130E-02
       2.0911573E-02
       2.6156178E-02
       2.9467718E-02
       1.2723832E-03
       6.8143312E-04
       1.9965186E-03
       9.8137244E-04
       1.2547639E-03
       3.4437909E-03
       3.3303797E-04
       1.1406575E-03
       1.3511074E-04
       2.5081599E-04
       3.8875239E-04
       5.7272094E-04
       1.9896558E-04
       5.3614107E-04
       1.4715535E-04
       5.2677699E-03
       6.8642999E-03
       1.6589691E-03
       2.2795129E-03
       1.4189742E-02
       1.5460010E-02
       1.7521878E-02
       1.8005902E-02
       1.8019774E-02
       1.9408388E-02
       1.9549315E-02
       8.8199546E-03
       8.2450319E-03
       1.2085058E-02
       1.3176874E-02
       3.9829071E-03
       1.0158051E-02
       1.1390467E-02
       2.3003108E-03
       1.0501100E-02
       1.3133852E-02
       1.4844258E-02
       1.4790906E-02
       1.6027403E-02
       1.4443257E-02
       6.5309155E-04
       1.6445043E-02
       1.2419094E-02
       1.6042251E-02
       1.1327618E-02
       1.1613538E-02
       1.0953412E-02
       4.6373557E-03
       7.8510724E-03
       5.8949908E-03
       7.0860567E-03
       5.6032926E-03
       2.4563287E-03
       1.0612412E-03
       1.5548689E-02
       1.4605542E-02
       1.7047665E-02
       5.8741643E-03
       6.0971118E-03
       5.1711558E-03
       7.8080632E-03
       6.7389793E-03
       5.9918337E-03
       9.8023839E-03
       2.8985111E-03
       8.4397259E-04
       6.3195810E-04
       2.2063678E-02
       1.7153241E-02
       1.0851740E-02
       1.3245503E-02
       1.0537405E-02
       1.5554617E-02
       1.8254422E-02
       1.7349535E-02
       3.3056991E-02
       3.5131397E-02
       3.5295207E-02
       3.5458466E-02
       3.5501375E-02
       3.6061143E-02
       3.4564271E-02
       3.4322153E-02
       3.5096226E-02
       3.4301033E-02
       3.8529021E-02
       3.8404682E-02
       4.3465892E-02
       3.8297639E-02
       3.6719276E-02
       4.0991824E-02
       4.0233492E-02
       4.1052417E-02
       4.0251949E-02
       3.8891516E-02
       4.2115897E-02
       3.4014626E-02
       4.1731073E-02
       4.2845020E-02
       3.6969551E-02
       3.2949973E-02
       4.2868681E-02
       4.2526429E-02
       4.0651309E-02
       4.0974010E-02
       4.1188984E-02
       3.4308412E-02
       4.2091153E-02
       3.7096546E-02
       4.1629760E-02
       3.5814119E-02
       4.2485244E-02
       4.1455739E-02
       4.2063409E-02
       4.1730126E-02
       4.2242070E-02
       4.0769135E-02
       4.2822427E-02
       3.8829884E-02
       4.2528263E-02
       3.8398880E-02
       3.7575155E-02
       4.2323623E-02
       4.2837364E-02
       3.9020501E-02
       3.7548202E-02
       1.9175713E-02
       4.3256219E-02
       1.6881452E-02
       4.3641365E-02
       3.9305887E-02
       4.3441782E-02
       3.5610035E-02
       3.4506203E-02
       4.3506306E-02
       4.3900344E-02
       4.3882463E-02
       4.4448473E-02
       4.3212011E-02
       4.3112262E-02
       3.8426497E-02
       3.6509188E-02
       3.8027879E-02
       3.6038052E-02
       3.5437088E-02
       4.1470080E-02
       3.6938228E-02
       3.7995385E-02
       3.5023803E-02
       3.5585395E-02
       3.7128632E-02
       4.5047930E-02
       3.9560020E-02
       4.2296700E-02
       3.6554872E-02
       4.2022100E-02
       3.7046623E-02
       3.6427240E-02
       3.5394505E-02
       3.4522484E-02
       3.5886268E-02
       3.6332330E-02
       3.6514304E-02
       3.6117975E-02
       3.5590084E-02
       3.6014110E-02
       3.5109794E-02
       3.5925005E-02
       3.4396177E-02
       3.4042052E-02
       3.4706861E-02
       3.4014773E-02
       3.4687974E-02
       3.5330554E-02
       3.4820353E-02
       3.4050071E-02
       3.3339499E-02
       3.3170464E-02
       3.3052780E-02
       3.1999954E-02
       3.3601515E-02
       3.3997552E-02
       3.7553811E-02
       3.9876211E-02
       3.8939277E-02
       3.9222563E-02
       4.0388237E-02
       4.1433889E-02
       4.1178171E-02
       4.1447700E-02
       4.1210620E-02
       4.0749212E-02
       4.1585226E-02
       4.1076626E-02
       4.2134201E-02
       4.1060793E-02
       4.2035080E-02
       4.1714587E-02
       4.2447852E-02
       4.1414900E-02
       4.1437741E-02
       4.1424622E-02
       4.0466898E-02
       4.1848075E-02
       4.1001406E-02
       4.0671532E-02
       4.1660076E-02
       4.1747066E-02