# vtk DataFile Version 3.0
# Solution du M1 TR
ASCII
DATASET UNSTRUCTURED_GRID
POINTS   3280  float
0.0000000E+00  0.0000000E+00  0.2512933E-01
0.2000000E+01  0.0000000E+00  0.1960200E+01
0.2000000E+01  0.1000000E+01  0.1960336E+01
0.0000000E+00  0.1000000E+01  0.2506798E-01
0.1000000E+01  0.0000000E+00  0.9911746E+00
0.1000000E+01  0.1000000E+01  0.9911783E+00
0.1500000E+01  0.5000000E+00  0.1497319E+01
0.1500000E+01  0.0000000E+00  0.1474418E+01
0.1723284E+01  0.3570951E+00  0.1705100E+01
0.1500000E+01  0.2500000E+00  0.1495492E+01
0.1515103E+01  0.2763186E+00  0.1510343E+01
0.1594866E+01  0.2826386E+00  0.1585965E+01
0.1562500E+01  0.1875000E+00  0.1553755E+01
0.1534357E+01  0.1819434E+00  0.1526384E+01
0.1561083E+01  0.3343258E+00  0.1554343E+01
0.1750000E+01  0.0000000E+00  0.1715534E+01
0.1503267E+01  0.1622339E+00  0.1495763E+01
0.1514910E+01  0.2261192E+00  0.1509299E+01
0.1610795E+01  0.1290247E+00  0.1594785E+01
0.1539062E+01  0.1536458E+00  0.1529026E+01
0.1510772E+01  0.1982718E+00  0.1504445E+01
0.1541862E+01  0.2179813E+00  0.1534834E+01
0.1475030E+01  0.2178147E+00  0.1471093E+01
0.1539206E+01  0.2578835E+00  0.1532941E+01
0.1521085E+01  0.2465697E+00  0.1515466E+01
0.1496499E+01  0.2146241E+00  0.1491389E+01
0.1481433E+01  0.1870688E+00  0.1475851E+01
0.1586261E+01  0.1960616E+00  0.1576193E+01
0.1460896E+01  0.2899333E+00  0.1458821E+01
0.1542195E+01  0.2867649E+00  0.1536096E+01
0.1486080E+01  0.2754813E+00  0.1482641E+01
0.1536278E+01  0.3247610E+00  0.1530888E+01
0.1510131E+01  0.3295675E+00  0.1506140E+01
0.1455545E+01  0.2514402E+00  0.1453198E+01
0.1610995E+01  0.1909452E+00  0.1599746E+01
0.1564462E+01  0.2395252E+00  0.1556754E+01
0.1571524E+01  0.3026484E+00  0.1563958E+01
0.1613657E+01  0.2555806E+00  0.1603581E+01
0.1633998E+01  0.2714643E+00  0.1622611E+01
0.1534973E+01  0.3650914E+00  0.1529411E+01
0.1583157E+01  0.2286349E+00  0.1574114E+01
0.1586501E+01  0.1581416E+00  0.1574749E+01
0.1651985E+01  0.2274641E+00  0.1639281E+01
0.1619170E+01  0.2936434E+00  0.1608743E+01
0.1678889E+01  0.2641389E+00  0.1664346E+01
0.1642286E+01  0.2930521E+00  0.1630272E+01
0.1526415E+01  0.3446283E+00  0.1521454E+01
0.1662420E+01  0.3044259E+00  0.1649038E+01
0.1636786E+01  0.2469276E+00  0.1625287E+01
0.1588953E+01  0.3366240E+00  0.1580599E+01
0.1616427E+01  0.3314099E+00  0.1606343E+01
0.1598305E+01  0.3102698E+00  0.1589226E+01
0.1655410E+01  0.2614708E+00  0.1642515E+01
0.1487553E+01  0.3072167E+00  0.1484407E+01
0.1520126E+01  0.3036443E+00  0.1515382E+01
0.1477894E+01  0.2544664E+00  0.1474669E+01
0.1567847E+01  0.2133479E+00  0.1559246E+01
0.1663947E+01  0.3299725E+00  0.1650770E+01
0.1567022E+01  0.2696000E+00  0.1559591E+01
0.1678598E+01  0.3509559E+00  0.1664077E+01
0.1611933E+01  0.3827205E+00  0.1601741E+01
0.1640491E+01  0.3197373E+00  0.1628824E+01
0.1588015E+01  0.2526666E+00  0.1579260E+01
0.1708471E+01  0.3144917E+00  0.1691566E+01
0.1606944E+01  0.3564315E+00  0.1597282E+01
0.1604614E+01  0.2314093E+00  0.1594548E+01
0.1643491E+01  0.3631133E+00  0.1631459E+01
0.2000000E+01  0.5000000E+00  0.1960495E+01
0.1494727E+01  0.3621796E+00  0.1491349E+01
0.1701807E+01  0.3477237E+00  0.1685303E+01
0.1572156E+01  0.3701847E+00  0.1564649E+01
0.1688392E+01  0.3285111E+00  0.1673307E+01
0.1695932E+01  0.3904821E+00  0.1679846E+01
0.1636337E+01  0.3418163E+00  0.1625016E+01
0.1505941E+01  0.9448485E-01  0.1487240E+01
0.1423727E+01  0.1910920E+00  0.1420673E+01
0.1481447E+01  0.3359634E+00  0.1478855E+01
0.1441613E+01  0.3726133E+00  0.1441040E+01
0.1466699E+01  0.3599060E+00  0.1464849E+01
0.1476682E+01  0.4107296E+00  0.1474500E+01
0.1434448E+01  0.3273535E+00  0.1434092E+01
0.1464523E+01  0.3867258E+00  0.1462969E+01
0.1456903E+01  0.3373583E+00  0.1455578E+01
0.1454188E+01  0.3132491E+00  0.1452668E+01
0.1424069E+01  0.2919612E+00  0.1423576E+01
0.1490969E+01  0.3884111E+00  0.1487992E+01
0.1428051E+01  0.4202828E+00  0.1428422E+01
0.1513790E+01  0.3782958E+00  0.1509455E+01
0.1547789E+01  0.4092466E+00  0.1541782E+01
0.1535154E+01  0.3889763E+00  0.1529698E+01
0.1512699E+01  0.4170463E+00  0.1508751E+01
0.1441554E+01  0.3983607E+00  0.1441188E+01
0.1395941E+01  0.3853832E+00  0.1397758E+01
0.1420578E+01  0.3854393E+00  0.1421140E+01
0.1408336E+01  0.3518173E+00  0.1409308E+01
0.1549967E+01  0.3074339E+00  0.1543740E+01
0.1651639E+01  0.4114272E+00  0.1639078E+01
0.1668616E+01  0.3788978E+00  0.1654765E+01
0.1674624E+01  0.4027285E+00  0.1660487E+01
0.1706988E+01  0.4343785E+00  0.1690223E+01
0.1673984E+01  0.4357547E+00  0.1659749E+01
0.1695270E+01  0.4139894E+00  0.1679548E+01
0.1737273E+01  0.4034108E+00  0.1717542E+01
0.1645630E+01  0.3875965E+00  0.1633529E+01
0.1625874E+01  0.4052508E+00  0.1615005E+01
0.1627808E+01  0.4540126E+00  0.1617393E+01
0.1587158E+01  0.4136289E+00  0.1578817E+01
0.1633718E+01  0.4293591E+00  0.1622746E+01
0.1651607E+01  0.4466828E+00  0.1639367E+01
0.1605650E+01  0.4356658E+00  0.1596396E+01
0.1682168E+01  0.4808869E+00  0.1667141E+01
0.1671711E+01  0.4594749E+00  0.1657987E+01
0.1698428E+01  0.4596870E+00  0.1682556E+01
0.1646221E+01  0.4851828E+00  0.1634297E+01
0.1607747E+01  0.4151289E+00  0.1598120E+01
0.1584205E+01  0.4841185E+00  0.1576402E+01
0.1747573E+01  0.4622079E+00  0.1726946E+01
0.1568396E+01  0.4481495E+00  0.1561338E+01
0.1601760E+01  0.4629165E+00  0.1593044E+01
0.1723356E+01  0.4540167E+00  0.1705162E+01
0.1732897E+01  0.4294241E+00  0.1713440E+01
0.1722218E+01  0.4972746E+00  0.1703764E+01
0.1715121E+01  0.4754441E+00  0.1697476E+01
0.1584567E+01  0.4345797E+00  0.1576623E+01
0.1563465E+01  0.4258523E+00  0.1556794E+01
0.1534166E+01  0.4440258E+00  0.1529074E+01
0.1615090E+01  0.4918227E+00  0.1605482E+01
0.1717469E+01  0.4134541E+00  0.1699713E+01
0.1718488E+01  0.3909170E+00  0.1700324E+01
0.1741353E+01  0.3769080E+00  0.1721253E+01
0.1781199E+01  0.4241746E+00  0.1756947E+01
0.2000000E+01  0.2500000E+00  0.1960356E+01
0.1756308E+01  0.4199875E+00  0.1734821E+01
0.1762447E+01  0.3937207E+00  0.1740341E+01
0.1765097E+01  0.4438197E+00  0.1742521E+01
0.1807974E+01  0.4625425E+00  0.1779395E+01
0.1789176E+01  0.4471344E+00  0.1763450E+01
0.1514158E+01  0.1287364E+00  0.1502639E+01
0.1777674E+01  0.4803377E+00  0.1753732E+01
0.1811145E+01  0.4395021E+00  0.1783331E+01
0.1850404E+01  0.4566449E+00  0.1817692E+01
0.1748483E+01  0.3522599E+00  0.1727768E+01
0.1731235E+01  0.3304535E+00  0.1712322E+01
0.1777870E+01  0.3654441E+00  0.1754535E+01
0.1748149E+01  0.2821176E+00  0.1727564E+01
0.1732875E+01  0.3039003E+00  0.1713776E+01
0.1708314E+01  0.2807181E+00  0.1691649E+01
0.1767650E+01  0.3193756E+00  0.1745299E+01
0.1372661E+01  0.1704076E+00  0.1370214E+01
0.1411157E+01  0.2494459E+00  0.1410751E+01
0.1448000E+01  0.2246098E+00  0.1445356E+01
0.1360382E+01  0.2278583E+00  0.1361483E+01
0.1433680E+01  0.2431125E+00  0.1432230E+01
0.1388814E+01  0.2314916E+00  0.1388832E+01
0.1314549E+01  0.2124991E+00  0.1317140E+01
0.1404157E+01  0.2007613E+00  0.1402671E+01
0.1415035E+01  0.1072182E+00  0.1404658E+01
0.1520299E+01  0.1091515E+00  0.1505284E+01
0.1459010E+01  0.1690672E+00  0.1453470E+01
0.1436337E+01  0.2690050E+00  0.1435086E+01
0.1443480E+01  0.1263360E+00  0.1434986E+01
0.1625000E+01  0.0000000E+00  0.1594351E+01
0.1414954E+01  0.2197329E+00  0.1413524E+01
0.1335299E+01  0.2266424E+00  0.1337332E+01
0.1396801E+01  0.1612344E+00  0.1392673E+01
0.1792033E+01  0.3934232E+00  0.1767063E+01
0.1541310E+01  0.1264947E+00  0.1528551E+01
0.1483859E+01  0.1256971E+00  0.1472651E+01
0.1500341E+01  0.1139400E+00  0.1487040E+01
0.1498380E+01  0.1421255E+00  0.1488530E+01
0.1478242E+01  0.1468909E+00  0.1470156E+01
0.1453147E+01  0.1972183E+00  0.1449327E+01
0.1348833E+01  0.2067866E+00  0.1349805E+01
0.1368157E+01  0.2800764E+00  0.1370020E+01
0.1250000E+01  0.0000000E+00  0.1233262E+01
0.1496272E+01  0.2780308E-01  0.1471800E+01
0.1430228E+01  0.1622338E+00  0.1424827E+01
0.1544491E+01  0.1012427E+00  0.1526785E+01
0.1505524E+01  0.5428530E-01  0.1482985E+01
0.1576405E+01  0.1180891E+00  0.1560514E+01
0.1526885E+01  0.8834234E-01  0.1506391E+01
0.1558557E+01  0.6358195E-01  0.1534997E+01
0.1372206E+01  0.9428859E-01  0.1359937E+01
0.1414069E+01  0.8636887E-01  0.1399665E+01
0.1351230E+01  0.1581055E+00  0.1348846E+01
0.1371634E+01  0.2528708E+00  0.1372957E+01
0.1392978E+01  0.2694234E+00  0.1393621E+01
0.1321668E+01  0.2603105E+00  0.1325219E+01
0.1392566E+01  0.3027057E+00  0.1393701E+01
0.1345601E+01  0.2495441E+00  0.1347894E+01
0.1349996E+01  0.1827855E+00  0.1349563E+01
0.1475238E+01  0.9618066E-01  0.1459033E+01
0.1487372E+01  0.4556180E+00  0.1484982E+01
0.1432024E+01  0.3509343E+00  0.1431801E+01
0.1619231E+01  0.5383449E+00  0.1609141E+01
0.1532505E+01  0.4233173E+00  0.1527468E+01
0.1547332E+01  0.4788657E+00  0.1541765E+01
0.1627786E+01  0.4750493E+00  0.1617118E+01
0.1750658E+01  0.4911384E+00  0.1729635E+01
0.1783313E+01  0.5336292E+00  0.1757604E+01
0.1744147E+01  0.5299352E+00  0.1722904E+01
0.1772978E+01  0.5077787E+00  0.1748814E+01
0.1739682E+01  0.5092411E+00  0.1719156E+01
0.1715917E+01  0.5251974E+00  0.1697722E+01
0.1809547E+01  0.4999146E+00  0.1780365E+01
0.1486188E+01  0.5335558E+00  0.1483898E+01
0.1695320E+01  0.5058771E+00  0.1679423E+01
0.1793562E+01  0.5145404E+00  0.1766367E+01
0.1827482E+01  0.5355643E+00  0.1796437E+01
0.1805457E+01  0.5332234E+00  0.1776897E+01
0.1812320E+01  0.5734372E+00  0.1783465E+01
0.1794794E+01  0.5557356E+00  0.1767910E+01
0.1637325E+01  0.5533192E+00  0.1625941E+01
0.1761146E+01  0.5591762E+00  0.1738116E+01
0.1789115E+01  0.5788851E+00  0.1762655E+01
0.1693317E+01  0.6123782E+00  0.1677660E+01
0.1522396E+01  0.5359490E+00  0.1518252E+01
0.1814654E+01  0.6254783E+00  0.1785435E+01
0.1726166E+01  0.5505978E+00  0.1706634E+01
0.1691322E+01  0.5307786E+00  0.1675823E+01
0.1516987E+01  0.5143680E+00  0.1513270E+01
0.1661909E+01  0.5147686E+00  0.1648580E+01
0.1761865E+01  0.6508066E+00  0.1738739E+01
0.1692174E+01  0.5698207E+00  0.1676637E+01
0.1780214E+01  0.6037461E+00  0.1755229E+01
[...]
POINT_DATA    3280
SCALARS hauteur float
LOOKUP_TABLE DEFAULT
       2.5129334E-02
       6.6535414E-05
       2.0297485E-04
       2.5067979E-02
       1.1108072E-02
       1.1111738E-02
       2.7218675E-02
       4.3176684E-03
       1.6166818E-02
       2.5391904E-02
       2.5441140E-02
       2.2890653E-02
       2.2400939E-02
       2.2612004E-02
       2.4377961E-02
       4.1709875E-04
       2.2460815E-02
       2.4586478E-02
       1.6097940E-02
       2.0642099E-02
       2.3787732E-02
       2.3707095E-02
       2.5464841E-02
       2.4416915E-02
       2.4701102E-02
       2.4719793E-02
       2.3947997E-02
       2.1551185E-02
       2.7045379E-02
       2.4642722E-02
       2.6184496E-02
       2.5232955E-02
       2.6111088E-02
       2.6667733E-02
       2.0864431E-02
       2.3476875E-02
       2.3760055E-02
       2.2088939E-02
       2.1184074E-02
       2.5035336E-02
       2.2513981E-02
       1.9871883E-02
       2.0225360E-02
       2.1849063E-02
       1.8922655E-02
       2.0722138E-02
       2.5466473E-02
       1.9756205E-02
       2.1127483E-02
       2.3319205E-02
       2.2137398E-02
       2.2781199E-02
       2.0102131E-02
       2.6506297E-02
       2.5556859E-02
       2.6235052E-02
       2.2651379E-02
       1.9990886E-02
       2.3804576E-02
       1.8938891E-02
       2.1938956E-02
       2.1034221E-02
       2.2899896E-02
       1.7150831E-02
       2.2370205E-02
       2.1918636E-02
       2.0728692E-02
       3.6229944E-04
       2.6416731E-02
       1.7418490E-02
       2.3831647E-02
       1.8570554E-02
       1.7719565E-02
       2.1296617E-02
       1.1317746E-02
       2.5324840E-02
       2.6938557E-02
       2.8163275E-02
       2.7386961E-02
       2.7252951E-02
       2.8237733E-02
       2.7638449E-02
       2.7715817E-02
       2.7466607E-02
       2.7893247E-02
       2.6743386E-02
       2.8836948E-02
       2.5840078E-02
       2.4845563E-02
       2.5144321E-02
       2.6205905E-02
       2.8369120E-02
       2.9643623E-02
       2.8879620E-02
       2.9045546E-02
       2.4669455E-02
       2.0361752E-02
       1.9410562E-02
       1.9243332E-02
       1.7261591E-02
       1.9133209E-02
       1.8070400E-02
       1.4898794E-02
       2.0702399E-02
       2.1539600E-02
       2.2033347E-02
       2.3295968E-02
       2.1594368E-02
       2.0681834E-02
       2.2752570E-02
       1.8504594E-02
       1.9598289E-02
       1.7983430E-02
       2.0890568E-02
       2.2420723E-02
       2.3775881E-02
       1.4208018E-02
       2.4205833E-02
       2.3211958E-02
       1.6158811E-02
       1.5085720E-02
       1.5876189E-02
       1.6543963E-02
       2.3641554E-02
       2.4494452E-02
       2.5489328E-02
       2.2586595E-02
       1.6479731E-02
       1.6091322E-02
       1.4610820E-02
       1.1253035E-02
       2.2325885E-04
       1.3521807E-02
       1.3025336E-02
       1.2608377E-02
       7.4604426E-03
       9.9391416E-03
       1.8663052E-02
       1.1493478E-02
       8.2877923E-03
       4.1734197E-03
       1.4138834E-02
       1.5596603E-02
       1.2104327E-02
       1.4262176E-02
       1.5443077E-02
       1.7387580E-02
       1.2884068E-02
       2.4914486E-02
       2.7723642E-02
       2.6219583E-02
       2.8217402E-02
       2.7127738E-02
       2.7701704E-02
       2.8794490E-02
       2.6503293E-02
       1.7829689E-02
       1.5289090E-02
       2.3543167E-02
       2.7381070E-02
       2.0279997E-02
       1.7432029E-03
       2.6775449E-02
       2.8649826E-02
       2.3714748E-02
       1.0751714E-02
       1.7964162E-02
       1.8370577E-02
       1.6606715E-02
       2.0018519E-02
       2.1380099E-02
       2.5145838E-02
       2.7859387E-02
       2.9134990E-02
       8.1789330E-03
       5.3539569E-03
       2.3108171E-02
       1.3080841E-02
       7.4714716E-03
       1.5532822E-02
       9.9426048E-03
       7.5078656E-03
       1.5084086E-02
       1.3784087E-02
       2.4550097E-02
       2.8664641E-02
       2.8409746E-02
       2.9897294E-02
       2.8893987E-02
       2.9114656E-02
       2.6476895E-02
       1.3201973E-02
       2.7258268E-02
       2.8321681E-02
       2.2187278E-02
       2.5511719E-02
       2.5276190E-02
       2.1779573E-02
       1.3873766E-02
       9.8393433E-03
       1.3523502E-02
       1.1178064E-02
       1.4152389E-02
       1.6009259E-02
       6.8885971E-03
       2.7334658E-02
       1.7896101E-02
       8.5565792E-03
       5.3830631E-03
       7.4286293E-03
       7.2708719E-03
       8.8924713E-03
       2.1253431E-02
       1.2075832E-02
       9.2030860E-03
       1.8097239E-02
       2.6202553E-02
       6.9540764E-03
       1.4875708E-02
       1.8215010E-02
       2.6522006E-02
       1.9798978E-02
       1.1993332E-02
       1.8193706E-02
       1.0500836E-02
       2.4580616E-02
       1.9557146E-02
       1.3165584E-02
       2.3848898E-02
       1.8380518E-02
       1.4456900E-02
       1.3566905E-02
       1.5675660E-02
       1.5304644E-02
       6.0823318E-03
       7.8223661E-03
       3.7005825E-04
       1.2298335E-02
       3.7401145E-03
       1.0176124E-02
       1.2125076E-02
       1.8517245E-02
       1.6092849E-02
       9.1314195E-03
       6.1168795E-03
       6.2283319E-03
       8.2005160E-03
       9.6173409E-03
       9.6807733E-03
       1.2143131E-02
       2.0657670E-02
       2.6978766E-02
       1.7388499E-02
       1.8979673E-02
       2.1109460E-02
       2.2163957E-02
       7.4436075E-03
       1.0368872E-02
       6.9819304E-03
       3.2673949E-03
       3.0678559E-03
       4.3561881E-03
       1.1949647E-02
       1.2110485E-02
       3.5070052E-03
       1.6551071E-02
       6.3066209E-03
       1.5277054E-02
       4.6682020E-03
       1.0813391E-03
       1.1540418E-02
       1.9134161E-02
       1.7933727E-02
       1.9651773E-02
       9.4304053E-03
       1.8050274E-02
       2.2344167E-02
       2.1549411E-02
       2.6052627E-02
       2.4602924E-02
       2.1743796E-02
       2.5402659E-02
       1.2945093E-02
       6.5009877E-03
       2.1834325E-02
       9.8303074E-03
       2.0918988E-02
       7.3762787E-03
       2.8314070E-02
       2.8608651E-02
       2.9367402E-02
       2.9868861E-02
       3.0124669E-02
       2.6960405E-02
       2.6272975E-02
       2.7964209E-02
       2.5934658E-02
       2.6182730E-02
       2.3379101E-02
       2.5428653E-02
       2.0940070E-02
       2.5018087E-02
       2.4387459E-02
       8.6738321E-03
       5.8979662E-03
       4.6873531E-03
       1.1714055E-02
       1.9741732E-02
       5.1647481E-03
       7.8618948E-03
       2.1379612E-02
       2.3618783E-02
       7.2710448E-03
       1.6720972E-02
       8.0048348E-03
       1.5493154E-02
       1.2248059E-02
       1.3837666E-02
       1.4269713E-02
       7.9471319E-03
       4.0715119E-03
       1.4450606E-04
       9.8422031E-03
       2.2517945E-03
       1.2545017E-02
       9.6750357E-03
       1.9747550E-02
       4.2286095E-04
       5.5404187E-03
       1.1761376E-02
       1.0313328E-02
       1.7566456E-02
       1.6207274E-02
       4.0351122E-03
       2.2690079E-02
       1.9928955E-03
       1.4372326E-02
       2.4862376E-02
       1.7304612E-03
       8.3461590E-04
       1.6951715E-02
       1.6488016E-02
       1.8477496E-02
       1.8746250E-02
       9.4766366E-03
       1.8661965E-02
       1.7464489E-02
       1.8358927E-02
       2.0066425E-02
       1.7021779E-02
       1.2073691E-02
       1.5520876E-02
       1.7362835E-02
       5.9876561E-04
       5.7658070E-03
       5.8594979E-03
       8.3851019E-03
       4.5561054E-03
       4.4422195E-03
       2.1603027E-03
       2.1812628E-03
       1.4089183E-03
       1.8416639E-02
       1.9961211E-02
       1.6622765E-02
       1.3844631E-02
       1.7598705E-02
       1.1459906E-02
       5.5335207E-03
       9.8868483E-03
       5.9973076E-03
       4.9897354E-03
       3.7811651E-03
       5.4084816E-03
       6.5607171E-03
       2.7830024E-02
       3.1146970E-02
       2.9428713E-02
       3.0025535E-02
       3.0967254E-02
       2.9590525E-02
       3.0483322E-02
       3.1467963E-02
       3.1174741E-02
       3.2311592E-02
       3.0657913E-02
       3.1800649E-02
       3.2816076E-02
       3.2239121E-02
       3.1894047E-02
       3.2012639E-02
       3.1098814E-02
       2.9778531E-02
       2.9292219E-02
       2.9176816E-02
       2.9106178E-02
       3.0086367E-02
       3.0683954E-02
       3.0809593E-02
       2.7507216E-02
       2.4672561E-02
       2.7721675E-02
       2.6345178E-02
       2.4924869E-02
       3.0035075E-02
       3.1180916E-02
       3.0830495E-02
       3.0487120E-02
       3.0470621E-02
       3.1040818E-02
       3.2277991E-02
       3.1754058E-02
       3.0260004E-02
       3.1619671E-02
       3.2130000E-02
       3.2372919E-02
       3.1718691E-02
       3.0710438E-02
       3.1017319E-02
       3.3560202E-02
       3.1594763E-02
       3.3405203E-02
       3.2924229E-02
       3.2886777E-02
       3.2913674E-02
       3.3889524E-02
       3.3334728E-02
       3.3165598E-02
       3.2820209E-02
       3.3339150E-02
       3.4338999E-02
       3.3793510E-02
       3.4113182E-02
       3.3123476E-02
       3.5063217E-02
       3.2802223E-02
       3.4424733E-02
       3.1807512E-02
       3.3771008E-02
       3.4666636E-02
       3.5323283E-02
       3.5172231E-02
       3.6082960E-02
       3.5620619E-02
       3.5035248E-02
       3.4147372E-02
       3.2483013E-02
       3.3276655E-02
       3.5655655E-02
       3.5769608E-02
       3.5906987E-02
       3.6634365E-02
       3.6355692E-02
       3.4848760E-02
       3.6286797E-02
       3.1993544E-02
       3.2871952E-02
       3.6192209E-02
       3.6104519E-02
       3.5624394E-02
       3.6175488E-02
       3.6535896E-02
       3.1136447E-02
       3.2884729E-02
       3.7075486E-02
       3.2279616E-02
       3.3959925E-02
       3.6736210E-02
       3.6975348E-02
       3.1097504E-02
       3.3545248E-02
       3.4155049E-02
       3.6635152E-02
       3.6978993E-02
       3.6936295E-02
       3.7706112E-02
       3.7413731E-02
       3.1663224E-02
       3.1090814E-02
       3.1903427E-02
       2.9704690E-02
       3.2009234E-02
       3.0426152E-02
       3.0565244E-02
       3.0243745E-02
       3.7491363E-02
       3.8284694E-02
       2.9590802E-02
       3.7283472E-02
       3.7749307E-02
       3.7165275E-02
       3.7937966E-02
       2.8853641E-02
       2.9933993E-02
       2.9349249E-02
       2.8433973E-02
       2.9024579E-02
       2.9098720E-02
       3.7559607E-02
       3.7117198E-02
       3.7957817E-02
       3.7212040E-02
       2.8327450E-02
       2.7763080E-02
       3.6806380E-02
       3.8346832E-02
       3.7700782E-02
       3.6166699E-02
       2.7978330E-02
       3.8068550E-02
       3.6691877E-02
       3.6117533E-02
       2.8690360E-02
       3.7614999E-02
       3.8182803E-02
       3.6840354E-02
       3.8979496E-02
       3.7000379E-02
       3.8655150E-02
       3.8622503E-02
       3.8658656E-02
       3.8903293E-02
       3.8649492E-02
       3.8299178E-02
       3.8203289E-02
       3.9311220E-02
       3.8980560E-02
       3.9430646E-02
       3.9050209E-02
       3.9247973E-02
       2.8013570E-02
       6.4679435E-03
       4.0666541E-03
       1.5623757E-03
       2.8654121E-03
       1.7144744E-03
       2.5316195E-03
       2.3360601E-03
       3.4782577E-03
       3.9793957E-03
       3.3720658E-03
       4.6473274E-03
       1.8161481E-04
       3.5288189E-04
       2.0116962E-03
       2.3240058E-03
       1.4055641E-03
       7.3819524E-04
       2.4414281E-03
       4.8715797E-04
       4.7829048E-04
       1.5353692E-03
       9.2056012E-04
       5.1866645E-04
       8.5987346E-04
       1.9703287E-04
       2.7047613E-02
       2.0178289E-02
       1.8938960E-02
       2.1550372E-02
       1.9894069E-02
       2.0572510E-02
       2.1732901E-02
       2.5766128E-02
       2.4204061E-02
       2.5006693E-02
       2.5974973E-02
       2.4357671E-02
       2.5102963E-02
       2.3264467E-02
       2.5239408E-02
       2.6069394E-02
       2.5401933E-02
       2.6876708E-02
       2.7598136E-02
       2.6766911E-02
       2.5644881E-02
       2.3898364E-02
       2.4802041E-02
       2.3839952E-02
       2.4571126E-02
       2.5507391E-02
       2.4725066E-02
       2.3607685E-02
       2.4586068E-02
       2.4015465E-02
       2.4389313E-02
       2.2182228E-02
       2.4403644E-02
       2.2314349E-02
       2.5689667E-02
       2.3423861E-02
       2.5359036E-02
       2.6342317E-02
       2.2750604E-02
       2.3188205E-02
       2.4303664E-02
       2.6352473E-02
       2.7305743E-02
       2.6620758E-02
       2.5657919E-02
       2.7913848E-02
       2.6309817E-02
       2.6814313E-02
       2.6299289E-02
       2.5234372E-02
       2.7212529E-02
       2.7078504E-02
       2.8331366E-02
       2.7150500E-02
       2.7763694E-02
       2.9195124E-02
       2.8483313E-02
       2.9534388E-02
       1.1287521E-02
       1.4021155E-02
       1.6116773E-02
       1.7170462E-02
       1.6329877E-02
       1.3866920E-02
       5.5842118E-03
       1.3591787E-03
       5.8330299E-03
       2.6671376E-03
       1.7175701E-02
       2.0741227E-02
       1.3673794E-02
       1.2185346E-02
       1.8944168E-02
       1.9237308E-02
       1.7616837E-02
       1.5347469E-02
       1.5856888E-02
       1.6901136E-02
       1.6924112E-02
       1.8484841E-02
       1.3281365E-02
       1.1830540E-02
       1.4077299E-02
       1.3876086E-02
       1.1226288E-02
       1.2506118E-02
       1.3794795E-02
       7.8097680E-03
       7.5156114E-03
       1.0380379E-02
       7.5222038E-03
       9.4372951E-03
       9.4813869E-03
       1.5098169E-02
       7.3481659E-03
       9.8024486E-03
       5.1867549E-03
       2.7011622E-03
       2.8276200E-03
       1.7035573E-03
       2.1059590E-02
       1.9355018E-02
       1.8952951E-02
       6.3740278E-03
       7.4708971E-03
       8.0440377E-03
       5.6730533E-03
       5.9469431E-03
       4.2868385E-03
       2.7770766E-02
       2.6963093E-02
       2.8759344E-02
       2.6938611E-02
       2.8934642E-02
       2.5182323E-02
       3.0134648E-02
       2.4747656E-02
       3.1242521E-02
       2.9920370E-02
       2.6888210E-02
       2.8152576E-02
       1.6884586E-02
       3.0742598E-02
       2.1855116E-02
       2.2130977E-02
       9.8638222E-03
       2.0709623E-02
       3.1945288E-02
       1.3967822E-02
       1.1227994E-02
       1.4305308E-02
       1.4052213E-02
       3.0402169E-02
       3.1858910E-02
       2.4141379E-02
       2.2773759E-02
       3.1499787E-02
       3.3588265E-02
       3.3738369E-02
       3.1379728E-02
       3.3527835E-02
       3.5190430E-02
       3.4809178E-02
       3.7387096E-02
       3.6346589E-02
       3.8042246E-02
       3.7511129E-02
       3.7901573E-02
       3.7379657E-02
       3.7974822E-02
       3.8845266E-02
       3.8395735E-02
       3.8460964E-02
       3.8423271E-02
       3.5799453E-02
       3.6522494E-02
       3.5211226E-02
       3.6468203E-02
       3.8532325E-02
       3.8679660E-02
       3.8094620E-02
       3.7891976E-02
       3.8171950E-02
       3.9163105E-02
       4.0025683E-02
       3.5123687E-03
       4.6372715E-04
       1.0860219E-03
       2.6933454E-04
       2.2267938E-02
       2.3112000E-02
       2.0641658E-02
       2.1649474E-02
       2.2485142E-02
       2.6978333E-02
       2.8578741E-02
       2.8252241E-02
       2.2995206E-02
       2.1917688E-02
       2.0727571E-02
       2.6188732E-02
       2.5490585E-02
       2.2524270E-02
       2.8277173E-02
       3.0346551E-02
       2.1573431E-03
       1.0564856E-03
       3.3441567E-03
       1.4220927E-03
       1.9890120E-03
       5.4716495E-03
       4.3091686E-04
       1.8614109E-03
       1.8259059E-04
       3.7488044E-04
       3.9725073E-04
       6.2405512E-04
       3.2730111E-04
       8.7256178E-04
       1.8785427E-04
       8.3365324E-03
       1.0101302E-02
       2.8670388E-03
       4.2901077E-03
       1.9290774E-02
       1.9679097E-02
       2.1264180E-02
       2.1170961E-02
       2.2172125E-02
       2.2940311E-02
       2.3478531E-02
       1.1978353E-02
       1.1234676E-02
       1.5384952E-02
       1.6171388E-02
       5.9942656E-03
       1.3491574E-02
       1.4571474E-02
       3.6395276E-03
       1.3652215E-02
       1.6133725E-02
       1.7645352E-02
       1.7465279E-02
       1.8821851E-02
       1.7261828E-02
       8.6530951E-04
       1.9007790E-02
       1.5498396E-02
       1.8694295E-02
       1.4577807E-02
       1.4681961E-02
       1.4196382E-02
       7.5319439E-03
       1.1393447E-02
       9.2533024E-03
       1.0354883E-02
       9.0347694E-03
       4.1402309E-03
       1.5963573E-03
       1.7945234E-02
       1.7203985E-02
       1.9386847E-02
       1.1656540E-02
       1.1821061E-02
       1.0237095E-02
       1.4039458E-02
       1.2568510E-02
       1.1328483E-02
       1.6023737E-02
       5.7852935E-03
       1.7061685E-03
       1.1604151E-03
       2.2193664E-02
       1.7512978E-02
       1.1826465E-02
       1.3982645E-02
       1.1194276E-02
       1.6302876E-02
       1.8731854E-02
       1.7550510E-02
       3.2758540E-02
       3.4540922E-02
       3.4603845E-02
       3.4887209E-02
       3.4790417E-02
       3.5255667E-02
       3.4238881E-02
       3.4139621E-02
       3.4772843E-02
       3.4162082E-02
       3.7419794E-02
       3.7204449E-02
       4.1296642E-02
       3.6448106E-02
       3.5662509E-02
       3.9261243E-02
       3.8677972E-02
       3.9355646E-02
       3.8644915E-02
       3.7533995E-02
       4.0187372E-02
       3.2859657E-02
       3.9908189E-02
       4.0799122E-02
       3.5739764E-02
       3.2424418E-02
       4.0831014E-02
       4.0568593E-02
       3.9094052E-02
       3.9381659E-02
       3.9527818E-02
       3.2752705E-02
       4.0245572E-02
       3.6138470E-02
       3.9890505E-02
       3.4753724E-02
       4.0504412E-02
       3.9770272E-02
       4.0199350E-02
       3.9950283E-02
       4.0356020E-02
       3.9159997E-02
       4.0815439E-02
       3.7415502E-02
       4.0586165E-02
       3.6982551E-02
       3.6432695E-02
       4.0422940E-02
       4.0828092E-02
       3.7706719E-02
       3.6219917E-02
       1.6706488E-02
       4.1138607E-02
       1.4338506E-02
       4.1450165E-02
       3.7782794E-02
       4.1299110E-02
       3.4634203E-02
       3.3510132E-02
       4.1343776E-02
       4.1684959E-02
       4.1661458E-02
       4.2126943E-02
       4.1108850E-02
       4.1036345E-02
       3.6922584E-02
       3.5554520E-02
       3.6713337E-02
       3.4897710E-02
       3.4247118E-02
       3.9726840E-02
       3.5484376E-02
       3.6756092E-02
       3.3931807E-02
       3.4931464E-02
       3.5757799E-02
       4.2646080E-02
       3.8083904E-02
       4.0365118E-02
       3.5764277E-02
       4.0124335E-02
       3.6160776E-02
       3.5549416E-02
       3.4560433E-02
       3.3819834E-02
       3.5158814E-02
       3.5724054E-02
       3.5789136E-02
       3.5481610E-02
       3.5057075E-02
       3.5490914E-02
       3.4532120E-02
       3.5453444E-02
       3.3793243E-02
       3.3586086E-02
       3.4210012E-02
       3.3484636E-02
       3.4266238E-02
       3.4883359E-02
       3.4463738E-02
       3.3727256E-02
       3.2985598E-02
       3.2756755E-02
       3.2579042E-02
       3.1506854E-02
       3.3361163E-02
       3.3607435E-02
       3.6730572E-02
       3.8488374E-02
       3.7715668E-02
       3.8034443E-02
       3.8932931E-02
       3.9750288E-02
       3.9538471E-02
       3.9754720E-02
       3.9561889E-02
       3.9203580E-02
       3.9856660E-02
       3.9461573E-02
       4.0282951E-02
       3.9478772E-02
       4.0199317E-02
       3.9954708E-02
       4.0524274E-02
       3.9740862E-02
       3.9770722E-02
       3.9754508E-02
       3.9042610E-02
       4.0078161E-02
       3.9445327E-02
       3.9196369E-02
       3.9932346E-02
       3.9986323E-02