# vtk DataFile Version 3.0
# Solution du M1 TR
ASCII
DATASET UNSTRUCTURED_GRID
POINTS   3280  float
0.0000000E+00  0.0000000E+00  0.2194132E-01
0.2000000E+01  0.0000000E+00  0.1960215E+01
0.2000000E+01  0.1000000E+01  0.1960361E+01
0.0000000E+00  0.1000000E+01  0.2193923E-01
0.1000000E+01  0.0000000E+00  0.9916436E+00
0.1000000E+01  0.1000000E+01  0.9917934E+00
0.1500000E+01  0.5000000E+00  0.1497271E+01
0.1500000E+01  0.0000000E+00  0.1474235E+01
0.1723284E+01  0.3570951E+00  0.1704188E+01
0.1500000E+01  0.2500000E+00  0.1495464E+01
0.1515103E+01  0.2763186E+00  0.1510276E+01
0.1594866E+01  0.2826386E+00  0.1585762E+01
0.1562500E+01  0.1875000E+00  0.1553719E+01
0.1534357E+01  0.1819434E+00  0.1526362E+01
0.1561083E+01  0.3343258E+00  0.1554176E+01
0.1750000E+01  0.0000000E+00  0.1715494E+01
0.1503267E+01  0.1622339E+00  0.1495735E+01
0.1514910E+01  0.2261192E+00  0.1509285E+01
0.1610795E+01  0.1290247E+00  0.1594481E+01
0.1539062E+01  0.1536458E+00  0.1528963E+01
0.1510772E+01  0.1982718E+00  0.1504434E+01
0.1541862E+01  0.2179813E+00  0.1534810E+01
0.1475030E+01  0.2178147E+00  0.1471070E+01
0.1539206E+01  0.2578835E+00  0.1532878E+01
0.1521085E+01  0.2465697E+00  0.1515433E+01
0.1496499E+01  0.2146241E+00  0.1491380E+01
0.1481433E+01  0.1870688E+00  0.1475834E+01
0.1586261E+01  0.1960616E+00  0.1576090E+01
0.1460896E+01  0.2899333E+00  0.1458739E+01
0.1542195E+01  0.2867649E+00  0.1535994E+01
0.1486080E+01  0.2754813E+00  0.1482579E+01
0.1536278E+01  0.3247610E+00  0.1530757E+01
0.1510131E+01  0.3295675E+00  0.1506016E+01
0.1455545E+01  0.2514402E+00  0.1453144E+01
0.1610995E+01  0.1909452E+00  0.1599556E+01
0.1564462E+01  0.2395252E+00  0.1556685E+01
0.1571524E+01  0.3026484E+00  0.1563788E+01
0.1613657E+01  0.2555806E+00  0.1603335E+01
0.1633998E+01  0.2714643E+00  0.1622249E+01
0.1534973E+01  0.3650914E+00  0.1529231E+01
0.1583157E+01  0.2286349E+00  0.1574011E+01
0.1586501E+01  0.1581416E+00  0.1574630E+01
0.1651985E+01  0.2274641E+00  0.1638878E+01
0.1619170E+01  0.2936434E+00  0.1608428E+01
0.1678889E+01  0.2641389E+00  0.1663687E+01
0.1642286E+01  0.2930521E+00  0.1629828E+01
0.1526415E+01  0.3446283E+00  0.1521304E+01
0.1662420E+01  0.3044259E+00  0.1648462E+01
0.1636786E+01  0.2469276E+00  0.1624961E+01
0.1588953E+01  0.3366240E+00  0.1580365E+01
0.1616427E+01  0.3314099E+00  0.1606022E+01
0.1598305E+01  0.3102698E+00  0.1588980E+01
0.1655410E+01  0.2614708E+00  0.1642018E+01
0.1487553E+01  0.3072167E+00  0.1484309E+01
0.1520126E+01  0.3036443E+00  0.1515277E+01
0.1477894E+01  0.2544664E+00  0.1474624E+01
0.1567847E+01  0.2133479E+00  0.1559194E+01
0.1663947E+01  0.3299725E+00  0.1650236E+01
0.1567022E+01  0.2696000E+00  0.1559471E+01
0.1678598E+01  0.3509559E+00  0.1663437E+01
0.1611933E+01  0.3827205E+00  0.1601340E+01
0.1640491E+01  0.3197373E+00  0.1628399E+01
0.1588015E+01  0.2526666E+00  0.1579112E+01
0.1708471E+01  0.3144917E+00  0.1690729E+01
0.1606944E+01  0.3564315E+00  0.1596951E+01
0.1604614E+01  0.2314093E+00  0.1594365E+01
0.1643491E+01  0.3631133E+00  0.1630982E+01
0.2000000E+01  0.5000000E+00  0.1960506E+01
0.1494727E+01  0.3621796E+00  0.1491213E+01
0.1701807E+01  0.3477237E+00  0.1684506E+01
0.1572156E+01  0.3701847E+00  0.1564411E+01
0.1688392E+01  0.3285111E+00  0.1672619E+01
0.1695932E+01  0.3904821E+00  0.1679065E+01
0.1636337E+01  0.3418163E+00  0.1624604E+01
0.1505941E+01  0.9448485E-01  0.1486995E+01
0.1423727E+01  0.1910920E+00  0.1420618E+01
0.1481447E+01  0.3359634E+00  0.1478733E+01
0.1441613E+01  0.3726133E+00  0.1440900E+01
0.1466699E+01  0.3599060E+00  0.1464714E+01
0.1476682E+01  0.4107296E+00  0.1474378E+01
0.1434448E+01  0.3273535E+00  0.1433958E+01
0.1464523E+01  0.3867258E+00  0.1462838E+01
0.1456903E+01  0.3373583E+00  0.1455447E+01
0.1454188E+01  0.3132491E+00  0.1452556E+01
0.1424069E+01  0.2919612E+00  0.1423470E+01
0.1490969E+01  0.3884111E+00  0.1487859E+01
0.1428051E+01  0.4202828E+00  0.1428296E+01
0.1513790E+01  0.3782958E+00  0.1509305E+01
0.1547789E+01  0.4092466E+00  0.1541584E+01
0.1535154E+01  0.3889763E+00  0.1529519E+01
0.1512699E+01  0.4170463E+00  0.1508616E+01
0.1441554E+01  0.3983607E+00  0.1441055E+01
0.1395941E+01  0.3853832E+00  0.1397597E+01
0.1420578E+01  0.3854393E+00  0.1420995E+01
0.1408336E+01  0.3518173E+00  0.1409155E+01
0.1549967E+01  0.3074339E+00  0.1543607E+01
0.1651639E+01  0.4114272E+00  0.1638488E+01
0.1668616E+01  0.3788978E+00  0.1654163E+01
0.1674624E+01  0.4027285E+00  0.1659822E+01
0.1706988E+01  0.4343785E+00  0.1689253E+01
0.1673984E+01  0.4357547E+00  0.1658976E+01
0.1695270E+01  0.4139894E+00  0.1678733E+01
0.1737273E+01  0.4034108E+00  0.1716466E+01
0.1645630E+01  0.3875965E+00  0.1633015E+01
0.1625874E+01  0.4052508E+00  0.1614546E+01
0.1627808E+01  0.4540126E+00  0.1616923E+01
0.1587158E+01  0.4136289E+00  0.1578524E+01
0.1633718E+01  0.4293591E+00  0.1622261E+01
0.1651607E+01  0.4466828E+00  0.1638731E+01
0.1605650E+01  0.4356658E+00  0.1596021E+01
0.1682168E+01  0.4808869E+00  0.1666101E+01
0.1671711E+01  0.4594749E+00  0.1657153E+01
0.1698428E+01  0.4596870E+00  0.1681566E+01
0.1646221E+01  0.4851828E+00  0.1633568E+01
0.1607747E+01  0.4151289E+00  0.1597745E+01
0.1584205E+01  0.4841185E+00  0.1576033E+01
0.1747573E+01  0.4622079E+00  0.1725689E+01
0.1568396E+01  0.4481495E+00  0.1561066E+01
0.1601760E+01  0.4629165E+00  0.1592663E+01
0.1723356E+01  0.4540167E+00  0.1704036E+01
0.1732897E+01  0.4294241E+00  0.1712301E+01
0.1722218E+01  0.4972746E+00  0.1702437E+01
0.1715121E+01  0.4754441E+00  0.1696271E+01
0.1584567E+01  0.4345797E+00  0.1576324E+01
0.1563465E+01  0.4258523E+00  0.1556570E+01
0.1534166E+01  0.4440258E+00  0.1528904E+01
0.1615090E+01  0.4918227E+00  0.1604954E+01
0.1717469E+01  0.4134541E+00  0.1698750E+01
0.1718488E+01  0.3909170E+00  0.1699373E+01
0.1741353E+01  0.3769080E+00  0.1720205E+01
0.1781199E+01  0.4241746E+00  0.1755776E+01
0.2000000E+01  0.2500000E+00  0.1960358E+01
0.1756308E+01  0.4199875E+00  0.1733655E+01
0.1762447E+01  0.3937207E+00  0.1739207E+01
0.1765097E+01  0.4438197E+00  0.1741274E+01
0.1807974E+01  0.4625425E+00  0.1778389E+01
0.1789176E+01  0.4471344E+00  0.1762260E+01
0.1514158E+01  0.1287364E+00  0.1502521E+01
0.1777674E+01  0.4803377E+00  0.1752461E+01
0.1811145E+01  0.4395021E+00  0.1782275E+01
0.1850404E+01  0.4566449E+00  0.1817119E+01
0.1748483E+01  0.3522599E+00  0.1726728E+01
0.1731235E+01  0.3304535E+00  0.1711362E+01
0.1777870E+01  0.3654441E+00  0.1753434E+01
0.1748149E+01  0.2821176E+00  0.1726503E+01
0.1732875E+01  0.3039003E+00  0.1712795E+01
0.1708314E+01  0.2807181E+00  0.1690825E+01
0.1767650E+01  0.3193756E+00  0.1744231E+01
0.1372661E+01  0.1704076E+00  0.1370123E+01
0.1411157E+01  0.2494459E+00  0.1410660E+01
0.1448000E+01  0.2246098E+00  0.1445311E+01
0.1360382E+01  0.2278583E+00  0.1361367E+01
0.1433680E+01  0.2431125E+00  0.1432160E+01
0.1388814E+01  0.2314916E+00  0.1388734E+01
0.1314549E+01  0.2124991E+00  0.1317014E+01
0.1404157E+01  0.2007613E+00  0.1402595E+01
0.1415035E+01  0.1072182E+00  0.1404557E+01
0.1520299E+01  0.1091515E+00  0.1505081E+01
0.1459010E+01  0.1690672E+00  0.1453429E+01
0.1436337E+01  0.2690050E+00  0.1435006E+01
0.1443480E+01  0.1263360E+00  0.1434905E+01
0.1625000E+01  0.0000000E+00  0.1594163E+01
0.1414954E+01  0.2197329E+00  0.1413455E+01
0.1335299E+01  0.2266424E+00  0.1337207E+01
0.1396801E+01  0.1612344E+00  0.1392595E+01
0.1792033E+01  0.3934232E+00  0.1765942E+01
0.1541310E+01  0.1264947E+00  0.1528407E+01
0.1483859E+01  0.1256971E+00  0.1472553E+01
0.1500341E+01  0.1139400E+00  0.1486887E+01
0.1498380E+01  0.1421255E+00  0.1488456E+01
0.1478242E+01  0.1468909E+00  0.1470102E+01
0.1453147E+01  0.1972183E+00  0.1449298E+01
0.1348833E+01  0.2067866E+00  0.1349693E+01
0.1368157E+01  0.2800764E+00  0.1369882E+01
0.1250000E+01  0.0000000E+00  0.1233380E+01
0.1496272E+01  0.2780308E-01  0.1471588E+01
0.1430228E+01  0.1622338E+00  0.1424762E+01
0.1544491E+01  0.1012427E+00  0.1526518E+01
0.1505524E+01  0.5428530E-01  0.1482727E+01
0.1576405E+01  0.1180891E+00  0.1560282E+01
0.1526885E+01  0.8834234E-01  0.1506086E+01
0.1558557E+01  0.6358195E-01  0.1534637E+01
0.1372206E+01  0.9428859E-01  0.1359848E+01
0.1414069E+01  0.8636887E-01  0.1399556E+01
0.1351230E+01  0.1581055E+00  0.1348744E+01
0.1371634E+01  0.2528708E+00  0.1372833E+01
0.1392978E+01  0.2694234E+00  0.1393506E+01
0.1321668E+01  0.2603105E+00  0.1325072E+01
0.1392566E+01  0.3027057E+00  0.1393565E+01
0.1345601E+01  0.2495441E+00  0.1347759E+01
0.1349996E+01  0.1827855E+00  0.1349458E+01
0.1475238E+01  0.9618066E-01  0.1458862E+01
0.1487372E+01  0.4556180E+00  0.1484897E+01
0.1432024E+01  0.3509343E+00  0.1431657E+01
0.1619231E+01  0.5383449E+00  0.1608448E+01
0.1532505E+01  0.4233173E+00  0.1527306E+01
0.1547332E+01  0.4788657E+00  0.1541574E+01
0.1627786E+01  0.4750493E+00  0.1616565E+01
0.1750658E+01  0.4911384E+00  0.1728300E+01
0.1783313E+01  0.5336292E+00  0.1756331E+01
0.1744147E+01  0.5299352E+00  0.1721453E+01
0.1772978E+01  0.5077787E+00  0.1747484E+01
0.1739682E+01  0.5092411E+00  0.1717748E+01
0.1715917E+01  0.5251974E+00  0.1696339E+01
0.1809547E+01  0.4999146E+00  0.1779418E+01
0.1486188E+01  0.5335558E+00  0.1483882E+01
0.1695320E+01  0.5058771E+00  0.1678218E+01
0.1793562E+01  0.5145404E+00  0.1765228E+01
0.1827482E+01  0.5355643E+00  0.1795693E+01
0.1805457E+01  0.5332234E+00  0.1775874E+01
0.1812320E+01  0.5734372E+00  0.1782453E+01
0.1794794E+01  0.5557356E+00  0.1766730E+01
0.1637325E+01  0.5533192E+00  0.1625079E+01
0.1761146E+01  0.5591762E+00  0.1736700E+01
0.1789115E+01  0.5788851E+00  0.1761438E+01
0.1693317E+01  0.6123782E+00  0.1676606E+01
0.1522396E+01  0.5359490E+00  0.1518152E+01
0.1814654E+01  0.6254783E+00  0.1784518E+01
0.1726166E+01  0.5505978E+00  0.1705174E+01
0.1691322E+01  0.5307786E+00  0.1674585E+01
0.1516987E+01  0.5143680E+00  0.1513193E+01
0.1661909E+01  0.5147686E+00  0.1647533E+01
0.1761865E+01  0.6508066E+00  0.1737539E+01
0.1692174E+01  0.5698207E+00  0.1675420E+01
0.1780214E+01  0.6037461E+00  0.1753941E+01
[...]
POINT_DATA    3280
SCALARS hauteur float
LOOKUP_TABLE DEFAULT
       2.1941315E-02
       8.1659527E-05
       2.2820561E-04
       2.1939228E-02
       1.1577071E-02
       1.1726858E-02
       2.7171493E-02
       4.1347160E-03
       1.5255302E-02
       2.5363711E-02
       2.5374036E-02
       2.2687197E-02
       2.2365115E-02
       2.2589941E-02
       2.4210887E-02
       3.7767975E-04
       2.2433086E-02
       2.4571936E-02
       1.5794012E-02
       2.0579419E-02
       2.3777298E-02
       2.3682833E-02
       2.5441915E-02
       2.4354015E-02
       2.4668244E-02
       2.4711427E-02
       2.3931536E-02
       2.1448341E-02
       2.6963701E-02
       2.4540472E-02
       2.6122307E-02
       2.5101875E-02
       2.5987659E-02
       2.6613107E-02
       2.0673657E-02
       2.3407255E-02
       2.3590350E-02
       2.1843240E-02
       2.0821712E-02
       2.4855166E-02
       2.2411651E-02
       1.9753090E-02
       1.9823109E-02
       2.1534254E-02
       1.8263646E-02
       2.0278398E-02
       2.5316492E-02
       1.9179276E-02
       2.0801702E-02
       2.3085131E-02
       2.1815842E-02
       2.2534739E-02
       1.9605593E-02
       2.6407635E-02
       2.5451928E-02
       2.6189760E-02
       2.2599059E-02
       1.9457009E-02
       2.3684272E-02
       1.8299005E-02
       2.1538596E-02
       2.0608727E-02
       2.2751414E-02
       1.6313582E-02
       2.2039481E-02
       2.1736509E-02
       2.0251536E-02
       3.7243320E-04
       2.6281278E-02
       1.6621534E-02
       2.3593382E-02
       1.7882056E-02
       1.6938152E-02
       2.0884234E-02
       1.1072997E-02
       2.5270189E-02
       2.6815734E-02
       2.8023179E-02
       2.7252051E-02
       2.7131350E-02
       2.8104288E-02
       2.7507561E-02
       2.7584925E-02
       2.7354397E-02
       2.7786930E-02
       2.6610074E-02
       2.8711545E-02
       2.5690421E-02
       2.4647197E-02
       2.4965082E-02
       2.6069923E-02
       2.8235216E-02
       2.9482668E-02
       2.8734026E-02
       2.8891889E-02
       2.4536649E-02
       1.9771784E-02
       1.8808356E-02
       1.8578090E-02
       1.6291240E-02
       1.8359841E-02
       1.7255441E-02
       1.3822853E-02
       2.0187791E-02
       2.1081448E-02
       2.1562975E-02
       2.3002916E-02
       2.1109195E-02
       2.0045684E-02
       2.2377524E-02
       1.7463969E-02
       1.8764157E-02
       1.6993929E-02
       2.0162021E-02
       2.2046061E-02
       2.3406903E-02
       1.2951242E-02
       2.3933736E-02
       2.2831442E-02
       1.5032318E-02
       1.3946488E-02
       1.4548935E-02
       1.5338864E-02
       2.3342392E-02
       2.4269820E-02
       2.5319207E-02
       2.2058254E-02
       1.5516635E-02
       1.5140172E-02
       1.3563232E-02
       1.0081600E-02
       2.2533060E-04
       1.2355981E-02
       1.1891911E-02
       1.1361571E-02
       6.4547566E-03
       8.7491878E-03
       1.8545240E-02
       1.0222927E-02
       7.2315379E-03
       3.5997691E-03
       1.3098405E-02
       1.4636576E-02
       1.1002951E-02
       1.3200588E-02
       1.4461966E-02
       1.6563370E-02
       1.1816654E-02
       2.4824053E-02
       2.7632808E-02
       2.6173992E-02
       2.8102257E-02
       2.7058030E-02
       2.7603990E-02
       2.8668320E-02
       2.6427621E-02
       1.7727950E-02
       1.5086079E-02
       2.3502393E-02
       2.7300888E-02
       2.0198691E-02
       1.5543624E-03
       2.6705741E-02
       2.8525088E-02
       2.3636303E-02
       9.6308724E-03
       1.7820338E-02
       1.8272130E-02
       1.6452981E-02
       1.9943860E-02
       2.1326916E-02
       2.5116384E-02
       2.7746841E-02
       2.8996447E-02
       8.2970715E-03
       5.1420219E-03
       2.3042984E-02
       1.2813954E-02
       7.2136599E-03
       1.5300194E-02
       9.6375495E-03
       7.1478389E-03
       1.4994444E-02
       1.3675158E-02
       2.4448853E-02
       2.8540550E-02
       2.8295112E-02
       2.9750199E-02
       2.8757376E-02
       2.8980308E-02
       2.6372198E-02
       1.3030578E-02
       2.7173431E-02
       2.8177962E-02
       2.1493621E-02
       2.5349089E-02
       2.5085053E-02
       2.1226573E-02
       1.2538341E-02
       8.5663585E-03
       1.2072451E-02
       9.8483065E-03
       1.2744314E-02
       1.4626116E-02
       5.9417968E-03
       2.7318583E-02
       1.6690759E-02
       7.4175756E-03
       4.6396064E-03
       6.4053259E-03
       6.2591258E-03
       7.7122953E-03
       2.0391778E-02
       1.0659687E-02
       7.9862655E-03
       1.7043484E-02
       2.6102683E-02
       6.0367667E-03
       1.3416094E-02
       1.6977312E-02
       2.6444373E-02
       1.8751808E-02
       1.0793401E-02
       1.6977385E-02
       9.2135935E-03
       2.4304632E-02
       1.8446251E-02
       1.1775862E-02
       2.3457444E-02
       1.7662824E-02
       1.3135316E-02
       1.2314651E-02
       1.4745977E-02
       1.4495336E-02
       5.3451041E-03
       7.2044145E-03
       4.0253719E-04
       1.1551025E-02
       3.2949422E-03
       9.1067180E-03
       1.0799728E-02
       1.7798217E-02
       1.5179750E-02
       8.0512428E-03
       5.2981794E-03
       5.3966505E-03
       7.1920614E-03
       8.5568364E-03
       8.6459051E-03
       1.1063036E-02
       2.0597548E-02
       2.6882926E-02
       1.7180434E-02
       1.8857020E-02
       2.1045959E-02
       2.2069109E-02
       7.0076830E-03
       1.0018135E-02
       6.5978473E-03
       3.0275472E-03
       2.7482326E-03
       4.0480844E-03
       1.1582450E-02
       1.1619773E-02
       3.1238430E-03
       1.6155327E-02
       5.8105208E-03
       1.4878758E-02
       4.2705350E-03
       9.5566951E-04
       1.0942682E-02
       1.8879344E-02
       1.7665752E-02
       1.9481377E-02
       9.2194061E-03
       1.7948009E-02
       2.2247280E-02
       2.1486082E-02
       2.5944699E-02
       2.4499050E-02
       2.1659385E-02
       2.5326245E-02
       1.2828436E-02
       6.4788997E-03
       2.1753707E-02
       9.6737436E-03
       2.0824025E-02
       7.1682403E-03
       2.8198374E-02
       2.8474128E-02
       2.9210753E-02
       2.9698491E-02
       2.9954477E-02
       2.6849597E-02
       2.6152574E-02
       2.7864090E-02
       2.5796541E-02
       2.6076106E-02
       2.2923712E-02
       2.5251227E-02
       2.0025618E-02
       2.4811201E-02
       2.4107156E-02
       7.5556827E-03
       5.0786559E-03
       4.0474556E-03
       1.0311574E-02
       1.8795514E-02
       4.5070251E-03
       6.8099127E-03
       2.0597712E-02
       2.3169692E-02
       6.5462211E-03
       1.5728785E-02
       7.1232724E-03
       1.4320409E-02
       1.1184025E-02
       1.2890339E-02
       1.3168126E-02
       6.9854166E-03
       3.6283986E-03
       1.3098668E-04
       8.9118101E-03
       2.0101426E-03
       1.1691266E-02
       8.5072716E-03
       1.9018795E-02
       4.1518288E-04
       4.7829164E-03
       1.0826052E-02
       9.5149840E-03
       1.6735865E-02
       1.4901020E-02
       3.7211446E-03
       2.2111385E-02
       1.7876523E-03
       1.3676550E-02
       2.4604973E-02
       1.5609827E-03
       7.7623936E-04
       1.6175112E-02
       1.5825024E-02
       1.7646676E-02
       1.7859778E-02
       8.8168060E-03
       1.8104890E-02
       1.6956645E-02
       1.7722823E-02
       1.9540930E-02
       1.6453143E-02
       1.1386802E-02
       1.4949781E-02
       1.6560244E-02
       5.4787154E-04
       4.9682992E-03
       5.1017869E-03
       7.4002972E-03
       4.1866333E-03
       4.1670678E-03
       1.9554885E-03
       1.9390509E-03
       1.2440368E-03
       1.7926811E-02
       1.9645937E-02
       1.6518936E-02
       1.3708067E-02
       1.7496287E-02
       1.1365311E-02
       5.4291936E-03
       9.7673114E-03
       5.9393510E-03
       4.8364094E-03
       3.5480359E-03
       5.1483459E-03
       6.2496926E-03
       2.7735434E-02
       3.0971925E-02
       2.9276571E-02
       2.9862842E-02
       3.0789255E-02
       2.9442410E-02
       3.0319625E-02
       3.1316403E-02
       3.1006969E-02
       3.2140832E-02
       3.0510494E-02
       3.1632910E-02
       3.2693635E-02
       3.2087315E-02
       3.1786365E-02
       3.1881038E-02
       3.0967636E-02
       2.9642701E-02
       2.9157864E-02
       2.9070964E-02
       2.8983795E-02
       2.9959371E-02
       3.0602679E-02
       3.0698166E-02
       2.7398694E-02
       2.4604752E-02
       2.7604056E-02
       2.6234716E-02
       2.4831454E-02
       2.9861376E-02
       3.0989971E-02
       3.0645829E-02
       3.0304563E-02
       3.0293326E-02
       3.0853478E-02
       3.2098222E-02
       3.1563432E-02
       3.0117008E-02
       3.1438994E-02
       3.1964481E-02
       3.2190998E-02
       3.1531608E-02
       3.0545031E-02
       3.0869094E-02
       3.3416313E-02
       3.1415773E-02
       3.3263679E-02
       3.2755588E-02
       3.2722591E-02
       3.2768838E-02
       3.3814814E-02
       3.3233441E-02
       3.3092124E-02
       3.2653542E-02
       3.3187176E-02
       3.4254543E-02
       3.3669324E-02
       3.4028531E-02
       3.2996344E-02
       3.5088524E-02
       3.2653902E-02
       3.4398655E-02
       3.1706008E-02
       3.3637612E-02
       3.4625785E-02
       3.5319371E-02
       3.5175178E-02
       3.6198933E-02
       3.5696929E-02
       3.5151272E-02
       3.4147979E-02
       3.2357479E-02
       3.3126704E-02
       3.5705334E-02
       3.5797385E-02
       3.5968459E-02
       3.6806432E-02
       3.6493982E-02
       3.4900987E-02
       3.6505006E-02
       3.1855985E-02
       3.2763729E-02
       3.6282059E-02
       3.6155811E-02
       3.5747690E-02
       3.6341304E-02
       3.6734803E-02
       3.1041702E-02
       3.2767608E-02
       3.7355346E-02
       3.2181141E-02
       3.3846788E-02
       3.6954288E-02
       3.7271723E-02
       3.1052051E-02
       3.3424900E-02
       3.4045243E-02
       3.6892486E-02
       3.7372471E-02
       3.7279618E-02
       3.8179633E-02
       3.7879741E-02
       3.1589735E-02
       3.1022147E-02
       3.1829678E-02
       2.9659343E-02
       3.1930396E-02
       3.0362044E-02
       3.0456830E-02
       3.0218095E-02
       3.7879424E-02
       3.8958043E-02
       2.9477503E-02
       3.7672968E-02
       3.8152451E-02
       3.7720866E-02
       3.8504753E-02
       2.8766794E-02
       2.9853908E-02
       2.9274502E-02
       2.8400264E-02
       2.8984463E-02
       2.9113710E-02
       3.7933058E-02
       3.7381627E-02
       3.8440423E-02
       3.7697604E-02
       2.8259278E-02
       2.7708249E-02
       3.6994417E-02
       3.8984414E-02
       3.8293942E-02
       3.6550290E-02
       2.7962514E-02
       3.8838038E-02
       3.7088040E-02
       3.6412128E-02
       2.8684691E-02
       3.8277476E-02
       3.8905036E-02
       3.7524398E-02
       3.9831473E-02
       3.7617897E-02
       3.9491269E-02
       3.9395721E-02
       3.9399890E-02
       3.9638290E-02
       3.9346158E-02
       3.8881532E-02
       3.8723256E-02
       4.0194596E-02
       3.9799061E-02
       4.0378772E-02
       3.9844976E-02
       4.0080849E-02
       2.7892903E-02
       5.5706657E-03
       3.5144551E-03
       1.3938658E-03
       2.4965840E-03
       1.5125635E-03
       2.2227665E-03
       2.0429688E-03
       3.0094602E-03
       3.4369036E-03
       2.9243346E-03
       4.0177298E-03
       1.9489262E-04
       3.4642948E-04
       1.7621385E-03
       2.0255926E-03
       1.2439275E-03
       6.7796832E-04
       2.1331301E-03
       4.5492877E-04
       4.5728011E-04
       1.3531183E-03
       8.3024104E-04
       4.7517436E-04
       7.7174775E-04
       2.0610321E-04
       2.7014583E-02
       1.9192762E-02
       1.7880952E-02
       2.0797977E-02
       1.9048369E-02
       1.9739164E-02
       2.1115431E-02
       2.5617276E-02
       2.3858621E-02
       2.4818239E-02
       2.5893793E-02
       2.4071795E-02
       2.4910520E-02
       2.2842783E-02
       2.5087157E-02
       2.5985185E-02
       2.5213438E-02
       2.6846301E-02
       2.7598814E-02
       2.6695521E-02
       2.5505529E-02
       2.3583115E-02
       2.4574022E-02
       2.3527038E-02
       2.4302533E-02
       2.5268648E-02
       2.4451192E-02
       2.3273005E-02
       2.4292565E-02
       2.3701759E-02
       2.4088667E-02
       2.1765537E-02
       2.4100727E-02
       2.1984553E-02
       2.5409927E-02
       2.3100661E-02
       2.5091805E-02
       2.6125735E-02
       2.2456671E-02
       2.2882589E-02
       2.4000593E-02
       2.6190909E-02
       2.7048031E-02
       2.6372568E-02
       2.5355455E-02
       2.7756461E-02
       2.6022328E-02
       2.6501470E-02
       2.5997258E-02
       2.4925951E-02
       2.7005843E-02
       2.6922897E-02
       2.8304339E-02
       2.7058139E-02
       2.7669325E-02
       2.9082950E-02
       2.8393223E-02
       2.9513470E-02
       9.9214262E-03
       1.2578311E-02
       1.4725308E-02
       1.5832086E-02
       1.5129287E-02
       1.3065116E-02
       4.9405038E-03
       1.2193707E-03
       5.2848311E-03
       2.3483868E-03
       1.6109794E-02
       2.0194732E-02
       1.3030376E-02
       1.1507377E-02
       1.8355648E-02
       1.8756633E-02
       1.6929001E-02
       1.4522019E-02
       1.4998326E-02
       1.6236516E-02
       1.6417329E-02
       1.8125265E-02
       1.2560635E-02
       1.0725082E-02
       1.3033925E-02
       1.2876587E-02
       1.0245912E-02
       1.1479889E-02
       1.2905128E-02
       6.8176376E-03
       6.6795037E-03
       9.2994335E-03
       6.5401164E-03
       8.3341593E-03
       8.3639652E-03
       1.4077770E-02
       6.4332736E-03
       8.7714991E-03
       4.8593711E-03
       2.4562883E-03
       2.5222993E-03
       1.5002009E-03
       2.0795593E-02
       1.9262927E-02
       1.8873977E-02
       6.2647386E-03
       7.3211025E-03
       7.9470474E-03
       5.5267119E-03
       5.7641528E-03
       4.0629079E-03
       2.7653973E-02
       2.6872787E-02
       2.8710569E-02
       2.6874526E-02
       2.8851244E-02
       2.5180530E-02
       3.0077157E-02
       2.4708608E-02
       3.1216483E-02
       2.9903819E-02
       2.6853184E-02
       2.8169685E-02
       1.6939295E-02
       3.0802385E-02
       2.1818557E-02
       2.2122196E-02
       1.0145923E-02
       2.0744209E-02
       3.1895767E-02
       1.4096913E-02
       1.1198058E-02
       1.4362450E-02
       1.4076778E-02
       3.0419837E-02
       3.1893974E-02
       2.4041332E-02
       2.2677788E-02
       3.1339623E-02
       3.3471098E-02
       3.3687200E-02
       3.1254771E-02
       3.3397109E-02
       3.5138426E-02
       3.4738751E-02
       3.7684991E-02
       3.6450217E-02
       3.8584737E-02
       3.8232472E-02
       3.8783290E-02
       3.8160881E-02
       3.8795099E-02
       3.9813930E-02
       3.9309359E-02
       3.9327079E-02
       3.9408255E-02
       3.6608864E-02
       3.7263749E-02
       3.5716203E-02
       3.6973467E-02
       3.9156429E-02
       3.9326238E-02
       3.8589695E-02
       3.8316301E-02
       3.8675060E-02
       4.0091981E-02
       4.1081198E-02
       3.0537511E-03
       4.5402090E-04
       9.8198030E-04
       2.8311577E-04
       2.1609274E-02
       2.2586894E-02
       1.9972611E-02
       2.1125373E-02
       2.1912544E-02
       2.6949110E-02
       2.8615134E-02
       2.8271190E-02
       2.2578022E-02
       2.1402180E-02
       2.0329691E-02
       2.6061985E-02
       2.5282986E-02
       2.2231285E-02
       2.8285401E-02
       3.0339594E-02
       1.9294844E-03
       9.5458930E-04
       3.0113516E-03
       1.2980374E-03
       1.8009699E-03
       4.9889509E-03
       4.0010764E-04
       1.6796308E-03
       1.6496915E-04
       3.3802493E-04
       3.9142260E-04
       6.0868931E-04
       2.9607298E-04
       7.8829364E-04
       1.8365398E-04
       7.6528637E-03
       9.4068856E-03
       2.5329110E-03
       3.7259994E-03
       1.8599973E-02
       1.9089417E-02
       2.0777670E-02
       2.0725169E-02
       2.1726090E-02
       2.2570157E-02
       2.3141929E-02
       1.1285339E-02
       1.0568833E-02
       1.4765346E-02
       1.5690947E-02
       5.5003445E-03
       1.2864593E-02
       1.3985861E-02
       3.3069625E-03
       1.3013932E-02
       1.5620588E-02
       1.7193851E-02
       1.7080449E-02
       1.8374277E-02
       1.6836553E-02
       8.0226290E-04
       1.8631907E-02
       1.5027499E-02
       1.8284845E-02
       1.4045193E-02
       1.4210155E-02
       1.3632014E-02
       6.8685519E-03
       1.0680258E-02
       8.4942180E-03
       9.7016102E-03
       8.2670428E-03
       3.7034599E-03
       1.4464684E-03
       1.7612240E-02
       1.6837827E-02
       1.9062716E-02
       1.0522808E-02
       1.0675175E-02
       9.1197007E-03
       1.2960353E-02
       1.1439212E-02
       1.0219696E-02
       1.5078036E-02
       5.0407331E-03
       1.5091356E-03
       1.0193551E-03
       2.2129921E-02
       1.7490850E-02
       1.1824929E-02
       1.3973156E-02
       1.1248623E-02
       1.6251286E-02
       1.8675616E-02
       1.7557506E-02
       3.2737750E-02
       3.4447455E-02
       3.4505399E-02
       3.4817917E-02
       3.4707435E-02
       3.5201861E-02
       3.4130315E-02
       3.4024463E-02
       3.4707943E-02
       3.4055585E-02
       3.7740559E-02
       3.8041220E-02
       4.2578559E-02
       3.7428057E-02
       3.6401978E-02
       4.0407102E-02
       3.9735945E-02
       4.0483828E-02
       3.9732753E-02
       3.8483121E-02
       4.1410385E-02
       3.3619104E-02
       4.1093843E-02
       4.2054166E-02
       3.6602226E-02
       3.2619396E-02
       4.2096028E-02
       4.1806016E-02
       4.0131397E-02
       4.0408870E-02
       4.0619893E-02
       3.3659645E-02
       4.1408305E-02
       3.6785727E-02
       4.1001474E-02
       3.5490131E-02
       4.1747518E-02
       4.0819746E-02
       4.1397648E-02
       4.1101594E-02
       4.1553383E-02
       4.0238407E-02
       4.2063915E-02
       3.8400724E-02
       4.1804783E-02
       3.7966118E-02
       3.7237421E-02
       4.1596828E-02
       4.2083857E-02
       3.8621375E-02
       3.7147191E-02
       1.7103692E-02
       4.2428924E-02
       1.5097906E-02
       4.2758812E-02
       3.8825734E-02
       4.2612568E-02
       3.5303685E-02
       3.4179362E-02
       4.2658762E-02
       4.3021190E-02
       4.2991431E-02
       4.3460637E-02
       4.2399780E-02
       4.2321120E-02
       3.7939647E-02
       3.6207177E-02
       3.7637040E-02
       3.5692996E-02
       3.5059615E-02
       4.0871206E-02
       3.6444055E-02
       3.7630172E-02
       3.4678640E-02
       3.5280849E-02
       3.6694916E-02
       4.3935990E-02
       3.9101818E-02
       4.1595298E-02
       3.6249996E-02
       4.1341626E-02
       3.6732342E-02
       3.6126548E-02
       3.5097752E-02
       3.4224945E-02
       3.5588173E-02
       3.6011705E-02
       3.6203305E-02
       3.5808582E-02
       3.5277322E-02
       3.5693645E-02
       3.4797891E-02
       3.5601686E-02
       3.4081906E-02
       3.3720857E-02
       3.4389741E-02
       3.3693616E-02
       3.4376674E-02
       3.5023044E-02
       3.4526774E-02
       3.3751450E-02
       3.3015234E-02
       3.2837583E-02
       3.2718759E-02
       3.1653967E-02
       3.3328247E-02
       3.3680716E-02
       3.7190932E-02
       3.9084775E-02
       3.8091255E-02
       3.8568815E-02
       3.9864399E-02
       4.0739488E-02
       4.0468045E-02
       4.0730168E-02
       4.0487690E-02
       4.0035311E-02
       4.0865920E-02
       4.0357006E-02
       4.1414252E-02
       4.0405402E-02
       4.1306973E-02
       4.0999936E-02
       4.1707872E-02
       4.0727138E-02
       4.0830761E-02
       4.0772748E-02
       3.9962981E-02
       4.1184707E-02
       4.0417808E-02
       4.0238320E-02
       4.0979779E-02
       4.1053739E-02