# vtk DataFile Version 3.0
# Solution du M1 TR
ASCII
DATASET UNSTRUCTURED_GRID
POINTS   3280  float
0.0000000E+00  0.0000000E+00  0.3050094E-01
0.2000000E+01  0.0000000E+00  0.1960179E+01
0.2000000E+01  0.1000000E+01  0.1960291E+01
0.0000000E+00  0.1000000E+01  0.3035091E-01
0.1000000E+01  0.0000000E+00  0.9903951E+00
0.1000000E+01  0.1000000E+01  0.9901689E+00
0.1500000E+01  0.5000000E+00  0.1497453E+01
0.1500000E+01  0.0000000E+00  0.1474515E+01
0.1723284E+01  0.3570951E+00  0.1706215E+01
0.1500000E+01  0.2500000E+00  0.1495507E+01
0.1515103E+01  0.2763186E+00  0.1510444E+01
0.1594866E+01  0.2826386E+00  0.1586349E+01
0.1562500E+01  0.1875000E+00  0.1553925E+01
0.1534357E+01  0.1819434E+00  0.1526493E+01
0.1561083E+01  0.3343258E+00  0.1554677E+01
0.1750000E+01  0.0000000E+00  0.1715610E+01
0.1503267E+01  0.1622339E+00  0.1495810E+01
0.1514910E+01  0.2261192E+00  0.1509359E+01
0.1610795E+01  0.1290247E+00  0.1595196E+01
0.1539062E+01  0.1536458E+00  0.1529190E+01
0.1510772E+01  0.1982718E+00  0.1504493E+01
0.1541862E+01  0.2179813E+00  0.1534963E+01
0.1475030E+01  0.2178147E+00  0.1471014E+01
0.1539206E+01  0.2578835E+00  0.1533111E+01
0.1521085E+01  0.2465697E+00  0.1515566E+01
0.1496499E+01  0.2146241E+00  0.1491387E+01
0.1481433E+01  0.1870688E+00  0.1475818E+01
0.1586261E+01  0.1960616E+00  0.1576441E+01
0.1460896E+01  0.2899333E+00  0.1458714E+01
0.1542195E+01  0.2867649E+00  0.1536316E+01
0.1486080E+01  0.2754813E+00  0.1482637E+01
0.1536278E+01  0.3247610E+00  0.1531122E+01
0.1510131E+01  0.3295675E+00  0.1506281E+01
0.1455545E+01  0.2514402E+00  0.1453051E+01
0.1610995E+01  0.1909452E+00  0.1600066E+01
0.1564462E+01  0.2395252E+00  0.1556966E+01
0.1571524E+01  0.3026484E+00  0.1564305E+01
0.1613657E+01  0.2555806E+00  0.1603993E+01
0.1633998E+01  0.2714643E+00  0.1623134E+01
0.1534973E+01  0.3650914E+00  0.1529747E+01
0.1583157E+01  0.2286349E+00  0.1574368E+01
0.1586501E+01  0.1581416E+00  0.1575004E+01
0.1651985E+01  0.2274641E+00  0.1639797E+01
0.1619170E+01  0.2936434E+00  0.1609243E+01
0.1678889E+01  0.2641389E+00  0.1665145E+01
0.1642286E+01  0.2930521E+00  0.1630882E+01
0.1526415E+01  0.3446283E+00  0.1521706E+01
0.1662420E+01  0.3044259E+00  0.1649780E+01
0.1636786E+01  0.2469276E+00  0.1625754E+01
0.1588953E+01  0.3366240E+00  0.1581042E+01
0.1616427E+01  0.3314099E+00  0.1606877E+01
0.1598305E+01  0.3102698E+00  0.1589673E+01
0.1655410E+01  0.2614708E+00  0.1643151E+01
0.1487553E+01  0.3072167E+00  0.1484441E+01
0.1520126E+01  0.3036443E+00  0.1515542E+01
0.1477894E+01  0.2544664E+00  0.1474604E+01
0.1567847E+01  0.2133479E+00  0.1559445E+01
0.1663947E+01  0.3299725E+00  0.1651497E+01
0.1567022E+01  0.2696000E+00  0.1559863E+01
0.1678598E+01  0.3509559E+00  0.1664904E+01
0.1611933E+01  0.3827205E+00  0.1602373E+01
0.1640491E+01  0.3197373E+00  0.1629443E+01
0.1588015E+01  0.2526666E+00  0.1579571E+01
0.1708471E+01  0.3144917E+00  0.1692597E+01
0.1606944E+01  0.3564315E+00  0.1597843E+01
0.1604614E+01  0.2314093E+00  0.1594876E+01
0.1643491E+01  0.3631133E+00  0.1632152E+01
0.2000000E+01  0.5000000E+00  0.1960477E+01
0.1494727E+01  0.3621796E+00  0.1491497E+01
0.1701807E+01  0.3477237E+00  0.1686290E+01
0.1572156E+01  0.3701847E+00  0.1565104E+01
0.1688392E+01  0.3285111E+00  0.1674174E+01
0.1695932E+01  0.3904821E+00  0.1680802E+01
0.1636337E+01  0.3418163E+00  0.1625646E+01
0.1505941E+01  0.9448485E-01  0.1487450E+01
0.1423727E+01  0.1910920E+00  0.1420438E+01
0.1481447E+01  0.3359634E+00  0.1478887E+01
0.1441613E+01  0.3726133E+00  0.1440938E+01
0.1466699E+01  0.3599060E+00  0.1464854E+01
0.1476682E+01  0.4107296E+00  0.1474591E+01
0.1434448E+01  0.3273535E+00  0.1433888E+01
0.1464523E+01  0.3867258E+00  0.1462973E+01
0.1456903E+01  0.3373583E+00  0.1455491E+01
0.1454188E+01  0.3132491E+00  0.1452567E+01
0.1424069E+01  0.2919612E+00  0.1423350E+01
0.1490969E+01  0.3884111E+00  0.1488131E+01
0.1428051E+01  0.4202828E+00  0.1428246E+01
0.1513790E+01  0.3782958E+00  0.1509709E+01
0.1547789E+01  0.4092466E+00  0.1542188E+01
0.1535154E+01  0.3889763E+00  0.1530053E+01
0.1512699E+01  0.4170463E+00  0.1508995E+01
0.1441554E+01  0.3983607E+00  0.1441079E+01
0.1395941E+01  0.3853832E+00  0.1397367E+01
0.1420578E+01  0.3854393E+00  0.1420912E+01
0.1408336E+01  0.3518173E+00  0.1408995E+01
0.1549967E+01  0.3074339E+00  0.1544009E+01
0.1651639E+01  0.4114272E+00  0.1639855E+01
0.1668616E+01  0.3788978E+00  0.1655560E+01
0.1674624E+01  0.4027285E+00  0.1661332E+01
0.1706988E+01  0.4343785E+00  0.1691366E+01
0.1673984E+01  0.4357547E+00  0.1660679E+01
0.1695270E+01  0.4139894E+00  0.1680524E+01
0.1737273E+01  0.4034108E+00  0.1718868E+01
0.1645630E+01  0.3875965E+00  0.1634257E+01
0.1625874E+01  0.4052508E+00  0.1615681E+01
0.1627808E+01  0.4540126E+00  0.1618045E+01
0.1587158E+01  0.4136289E+00  0.1579348E+01
0.1633718E+01  0.4293591E+00  0.1623425E+01
0.1651607E+01  0.4466828E+00  0.1640155E+01
0.1605650E+01  0.4356658E+00  0.1596987E+01
0.1682168E+01  0.4808869E+00  0.1668335E+01
0.1671711E+01  0.4594749E+00  0.1658954E+01
0.1698428E+01  0.4596870E+00  0.1683711E+01
0.1646221E+01  0.4851828E+00  0.1635143E+01
0.1607747E+01  0.4151289E+00  0.1598725E+01
0.1584205E+01  0.4841185E+00  0.1576941E+01
0.1747573E+01  0.4622079E+00  0.1728584E+01
0.1568396E+01  0.4481495E+00  0.1561825E+01
0.1601760E+01  0.4629165E+00  0.1593619E+01
0.1723356E+01  0.4540167E+00  0.1706518E+01
0.1732897E+01  0.4294241E+00  0.1714852E+01
0.1722218E+01  0.4972746E+00  0.1705413E+01
0.1715121E+01  0.4754441E+00  0.1698934E+01
0.1584567E+01  0.4345797E+00  0.1577147E+01
0.1563465E+01  0.4258523E+00  0.1557239E+01
0.1534166E+01  0.4440258E+00  0.1529431E+01
0.1615090E+01  0.4918227E+00  0.1606146E+01
0.1717469E+01  0.4134541E+00  0.1700863E+01
0.1718488E+01  0.3909170E+00  0.1701468E+01
0.1741353E+01  0.3769080E+00  0.1722551E+01
0.1781199E+01  0.4241746E+00  0.1758619E+01
0.2000000E+01  0.2500000E+00  0.1960350E+01
0.1756308E+01  0.4199875E+00  0.1736333E+01
0.1762447E+01  0.3937207E+00  0.1741828E+01
0.1765097E+01  0.4438197E+00  0.1744233E+01
0.1807974E+01  0.4625425E+00  0.1781170E+01
0.1789176E+01  0.4471344E+00  0.1765302E+01
0.1514158E+01  0.1287364E+00  0.1502794E+01
0.1777674E+01  0.4803377E+00  0.1755601E+01
0.1811145E+01  0.4395021E+00  0.1785080E+01
0.1850404E+01  0.4566449E+00  0.1818837E+01
0.1748483E+01  0.3522599E+00  0.1729093E+01
0.1731235E+01  0.3304535E+00  0.1713520E+01
0.1777870E+01  0.3654441E+00  0.1756039E+01
0.1748149E+01  0.2821176E+00  0.1728941E+01
0.1732875E+01  0.3039003E+00  0.1715012E+01
0.1708314E+01  0.2807181E+00  0.1692646E+01
0.1767650E+01  0.3193756E+00  0.1746752E+01
0.1372661E+01  0.1704076E+00  0.1369818E+01
0.1411157E+01  0.2494459E+00  0.1410408E+01
0.1448000E+01  0.2246098E+00  0.1445165E+01
0.1360382E+01  0.2278583E+00  0.1360946E+01
0.1433680E+01  0.2431125E+00  0.1431982E+01
0.1388814E+01  0.2314916E+00  0.1388408E+01
0.1314549E+01  0.2124991E+00  0.1316423E+01
0.1404157E+01  0.2007613E+00  0.1402323E+01
0.1415035E+01  0.1072182E+00  0.1404491E+01
0.1520299E+01  0.1091515E+00  0.1505511E+01
0.1459010E+01  0.1690672E+00  0.1453369E+01
0.1436337E+01  0.2690050E+00  0.1434879E+01
0.1443480E+01  0.1263360E+00  0.1434873E+01
0.1625000E+01  0.0000000E+00  0.1594623E+01
0.1414954E+01  0.2197329E+00  0.1413224E+01
0.1335299E+01  0.2266424E+00  0.1336696E+01
0.1396801E+01  0.1612344E+00  0.1392390E+01
0.1792033E+01  0.3934232E+00  0.1768671E+01
0.1541310E+01  0.1264947E+00  0.1528769E+01
0.1483859E+01  0.1256971E+00  0.1472713E+01
0.1500341E+01  0.1139400E+00  0.1487182E+01
0.1498380E+01  0.1421255E+00  0.1488620E+01
0.1478242E+01  0.1468909E+00  0.1470157E+01
0.1453147E+01  0.1972183E+00  0.1449193E+01
0.1348833E+01  0.2067866E+00  0.1349245E+01
0.1368157E+01  0.2800764E+00  0.1369495E+01
0.1250000E+01  0.0000000E+00  0.1232528E+01
0.1496272E+01  0.2780308E-01  0.1471923E+01
0.1430228E+01  0.1622338E+00  0.1424653E+01
0.1544491E+01  0.1012427E+00  0.1527105E+01
0.1505524E+01  0.5428530E-01  0.1483193E+01
0.1576405E+01  0.1180891E+00  0.1560840E+01
0.1526885E+01  0.8834234E-01  0.1506697E+01
0.1558557E+01  0.6358195E-01  0.1535407E+01
0.1372206E+01  0.9428859E-01  0.1359590E+01
0.1414069E+01  0.8636887E-01  0.1399483E+01
0.1351230E+01  0.1581055E+00  0.1348379E+01
0.1371634E+01  0.2528708E+00  0.1372436E+01
0.1392978E+01  0.2694234E+00  0.1393208E+01
0.1321668E+01  0.2603105E+00  0.1324470E+01
0.1392566E+01  0.3027057E+00  0.1393286E+01
0.1345601E+01  0.2495441E+00  0.1347261E+01
0.1349996E+01  0.1827855E+00  0.1349051E+01
0.1475238E+01  0.9618066E-01  0.1459114E+01
0.1487372E+01  0.4556180E+00  0.1485103E+01
0.1432024E+01  0.3509343E+00  0.1431637E+01
0.1619231E+01  0.5383449E+00  0.1609911E+01
0.1532505E+01  0.4233173E+00  0.1527810E+01
0.1547332E+01  0.4788657E+00  0.1542139E+01
0.1627786E+01  0.4750493E+00  0.1617822E+01
0.1750658E+01  0.4911384E+00  0.1731436E+01
0.1783313E+01  0.5336292E+00  0.1759702E+01
0.1744147E+01  0.5299352E+00  0.1724919E+01
0.1772978E+01  0.5077787E+00  0.1750854E+01
0.1739682E+01  0.5092411E+00  0.1721053E+01
0.1715917E+01  0.5251974E+00  0.1699432E+01
0.1809547E+01  0.4999146E+00  0.1782127E+01
0.1486188E+01  0.5335558E+00  0.1484009E+01
0.1695320E+01  0.5058771E+00  0.1680811E+01
0.1793562E+01  0.5145404E+00  0.1768350E+01
0.1827482E+01  0.5355643E+00  0.1797908E+01
0.1805457E+01  0.5332234E+00  0.1778775E+01
0.1812320E+01  0.5734372E+00  0.1785311E+01
0.1794794E+01  0.5557356E+00  0.1769926E+01
0.1637325E+01  0.5533192E+00  0.1626874E+01
0.1761146E+01  0.5591762E+00  0.1740215E+01
0.1789115E+01  0.5788851E+00  0.1764689E+01
0.1693317E+01  0.6123782E+00  0.1678900E+01
0.1522396E+01  0.5359490E+00  0.1518515E+01
0.1814654E+01  0.6254783E+00  0.1787095E+01
0.1726166E+01  0.5505978E+00  0.1708537E+01
0.1691322E+01  0.5307786E+00  0.1677218E+01
0.1516987E+01  0.5143680E+00  0.1513493E+01
0.1661909E+01  0.5147686E+00  0.1649727E+01
0.1761865E+01  0.6508066E+00  0.1740523E+01
0.1692174E+01  0.5698207E+00  0.1678002E+01
0.1780214E+01  0.6037461E+00  0.1757242E+01
[...]
POINT_DATA    3280
SCALARS hauteur float
LOOKUP_TABLE DEFAULT
       3.0500936E-02
       4.5613068E-05
       1.5777912E-04
       3.0350907E-02
       1.0328517E-02
       1.0102280E-02
       2.7353210E-02
       4.4152704E-03
       1.7282006E-02
       2.5407605E-02
       2.5541858E-02
       2.3273981E-02
       2.2570673E-02
       2.2721044E-02
       2.4711453E-02
       4.9355164E-04
       2.2507765E-02
       2.4645985E-02
       1.6509492E-02
       2.0806291E-02
       2.3836012E-02
       2.3836130E-02
       2.5386017E-02
       2.4586962E-02
       2.4801593E-02
       2.4717957E-02
       2.3915406E-02
       2.1799255E-02
       2.6938597E-02
       2.4862831E-02
       2.6180437E-02
       2.5466904E-02
       2.6252598E-02
       2.6520323E-02
       2.1184221E-02
       2.3688298E-02
       2.4107388E-02
       2.2500820E-02
       2.1706933E-02
       2.5370922E-02
       2.2768291E-02
       2.0126853E-02
       2.0741325E-02
       2.2348873E-02
       1.9721953E-02
       2.1331619E-02
       2.5718622E-02
       2.0497812E-02
       2.1594848E-02
       2.3762839E-02
       2.2671211E-02
       2.3227593E-02
       2.0738122E-02
       2.6539838E-02
       2.5717057E-02
       2.6170224E-02
       2.2850141E-02
       2.0717535E-02
       2.4076609E-02
       1.9766151E-02
       2.2571634E-02
       2.1652469E-02
       2.3211137E-02
       1.8181927E-02
       2.2931592E-02
       2.2247328E-02
       2.1421171E-02
       3.4412409E-04
       2.6564523E-02
       1.8405929E-02
       2.4286547E-02
       1.9437325E-02
       1.8675537E-02
       2.1926101E-02
       1.1527728E-02
       2.5090598E-02
       2.6970035E-02
       2.8061562E-02
       2.7391668E-02
       2.7343721E-02
       2.8034176E-02
       2.7643082E-02
       2.7628503E-02
       2.7365333E-02
       2.7667155E-02
       2.6882464E-02
       2.8661329E-02
       2.6094142E-02
       2.5251627E-02
       2.5499346E-02
       2.6449908E-02
       2.8259833E-02
       2.9252397E-02
       2.8651297E-02
       2.8732186E-02
       2.4938859E-02
       2.1138596E-02
       2.0205520E-02
       2.0088447E-02
       1.8404328E-02
       2.0063477E-02
       1.9046591E-02
       1.6224386E-02
       2.1429545E-02
       2.2215643E-02
       2.2685403E-02
       2.3827383E-02
       2.2273235E-02
       2.1469952E-02
       2.3343022E-02
       1.9698134E-02
       2.0565901E-02
       1.9138601E-02
       2.1736815E-02
       2.3025328E-02
       2.4315233E-02
       1.5846574E-02
       2.4692157E-02
       2.3787201E-02
       1.7514259E-02
       1.6497201E-02
       1.7525098E-02
       1.8001602E-02
       2.4165751E-02
       2.4939498E-02
       2.5846082E-02
       2.3250804E-02
       1.7629168E-02
       1.7235006E-02
       1.5908816E-02
       1.2925379E-02
       2.1652073E-04
       1.5034173E-02
       1.4512082E-02
       1.4320697E-02
       9.2353005E-03
       1.1790484E-02
       1.8818449E-02
       1.3362269E-02
       1.0036795E-02
       5.3186845E-03
       1.5463617E-02
       1.6794696E-02
       1.3607863E-02
       1.5638498E-02
       1.6679222E-02
       1.8384390E-02
       1.4337586E-02
       2.4518420E-02
       2.7380075E-02
       2.6028172E-02
       2.7680788E-02
       2.6879716E-02
       2.7278205E-02
       2.8077280E-02
       2.6155120E-02
       1.7662159E-02
       1.5516736E-02
       2.3442448E-02
       2.7174046E-02
       2.0166423E-02
       2.0147599E-03
       2.6475267E-02
       2.8013768E-02
       2.3431692E-02
       1.2360291E-02
       1.8182816E-02
       1.8432161E-02
       1.6748176E-02
       2.0108660E-02
       2.1381566E-02
       2.5011460E-02
       2.7299004E-02
       2.8610248E-02
       7.4452508E-03
       5.4768694E-03
       2.2933918E-02
       1.3401098E-02
       7.6792159E-03
       1.5858311E-02
       1.0248027E-02
       7.9173981E-03
       1.4736425E-02
       1.3601636E-02
       2.4083938E-02
       2.8143346E-02
       2.7996474E-02
       2.9147963E-02
       2.8478643E-02
       2.8482411E-02
       2.5964579E-02
       1.3282728E-02
       2.7379537E-02
       2.8158212E-02
       2.2957148E-02
       2.5853318E-02
       2.5650263E-02
       2.2483167E-02
       1.5674038E-02
       1.1937142E-02
       1.5538579E-02
       1.3217638E-02
       1.6049219E-02
       1.7719686E-02
       8.6503039E-03
       2.7445599E-02
       1.9284718E-02
       1.0540344E-02
       6.8538223E-03
       9.3061226E-03
       9.1165414E-03
       1.0908215E-02
       2.2186142E-02
       1.4174452E-02
       1.1236879E-02
       1.9337086E-02
       2.6465773E-02
       8.6138462E-03
       1.6778958E-02
       1.9610358E-02
       2.6744414E-02
       2.0945994E-02
       1.3777857E-02
       1.9559180E-02
       1.2513940E-02
       2.5027943E-02
       2.0759589E-02
       1.5093996E-02
       2.4381518E-02
       1.9485469E-02
       1.6183599E-02
       1.5289378E-02
       1.7021632E-02
       1.6569202E-02
       7.4304398E-03
       8.9696271E-03
       3.2198346E-04
       1.3561918E-02
       4.6128928E-03
       1.1890925E-02
       1.4050574E-02
       1.9402922E-02
       1.7142266E-02
       1.0808205E-02
       7.5510937E-03
       7.6939120E-03
       9.8092812E-03
       1.1204437E-02
       1.1272283E-02
       1.3642946E-02
       2.0782467E-02
       2.6524255E-02
       1.7717353E-02
       1.9219459E-02
       2.1303439E-02
       2.1813876E-02
       7.9836508E-03
       1.0794937E-02
       7.4510626E-03
       3.5385381E-03
       3.5191398E-03
       4.7257248E-03
       1.2415416E-02
       1.2700573E-02
       4.0806757E-03
       1.7016638E-02
       6.9440795E-03
       1.5765773E-02
       5.2020404E-03
       1.2802529E-03
       1.2235290E-02
       1.9494501E-02
       1.8306368E-02
       1.9950846E-02
       9.5561372E-03
       1.8046437E-02
       2.1880691E-02
       2.1476743E-02
       2.5400824E-02
       2.4052776E-02
       2.1141623E-02
       2.5064032E-02
       1.2840948E-02
       6.1508913E-03
       2.1626723E-02
       9.8311016E-03
       2.0665917E-02
       7.4725298E-03
       2.7987972E-02
       2.8298829E-02
       2.8927293E-02
       2.9391470E-02
       2.9500211E-02
       2.7114569E-02
       2.6529034E-02
       2.7965091E-02
       2.6238328E-02
       2.6445416E-02
       2.3989570E-02
       2.5780028E-02
       2.1921091E-02
       2.5425232E-02
       2.4861419E-02
       1.0559122E-02
       7.4640262E-03
       5.9735687E-03
       1.3834729E-02
       2.0799465E-02
       6.4147301E-03
       9.7110528E-03
       2.2245605E-02
       2.4189121E-02
       8.5681498E-03
       1.8037427E-02
       9.5232926E-03
       1.7006280E-02
       1.3868663E-02
       1.5279397E-02
       1.5823110E-02
       9.6085488E-03
       4.9277641E-03
       1.6393939E-04
       1.1382818E-02
       2.7404417E-03
       1.3935250E-02
       1.1567222E-02
       2.0747819E-02
       4.5088117E-04
       6.9973083E-03
       1.3267140E-02
       1.1685215E-02
       1.8766118E-02
       1.7807373E-02
       4.3123848E-03
       2.3366948E-02
       2.4198298E-03
       1.5541477E-02
       2.5281535E-02
       2.0917819E-03
       9.6111789E-04
       1.8146429E-02
       1.7594725E-02
       1.9609778E-02
       1.9858178E-02
       1.0691627E-02
       1.9650256E-02
       1.8371316E-02
       1.9417091E-02
       2.1012876E-02
       1.8019024E-02
       1.3270932E-02
       1.6501527E-02
       1.8297556E-02
       7.0218601E-04
       7.2518824E-03
       7.2148066E-03
       1.0009740E-02
       5.0380718E-03
       4.7112433E-03
       2.4214292E-03
       2.5207919E-03
       1.6616721E-03
       1.8967072E-02
       2.0377742E-02
       1.6541517E-02
       1.3823305E-02
       1.7334671E-02
       1.1199084E-02
       5.4182757E-03
       9.7623975E-03
       5.7642638E-03
       5.0042337E-03
       3.9972332E-03
       5.6253860E-03
       6.8758543E-03
       2.7538290E-02
       3.0462695E-02
       2.8903019E-02
       2.9367303E-02
       3.0174096E-02
       2.8944635E-02
       2.9705237E-02
       3.0494029E-02
       3.0289507E-02
       3.1278440E-02
       2.9783800E-02
       3.0821086E-02
       3.1648255E-02
       3.1170116E-02
       3.0807644E-02
       3.0939970E-02
       3.0122423E-02
       2.8976137E-02
       2.8581169E-02
       2.8288941E-02
       2.8299364E-02
       2.9197234E-02
       2.9654899E-02
       2.9815937E-02
       2.6745538E-02
       2.3898140E-02
       2.7026442E-02
       2.5764349E-02
       2.4224687E-02
       2.9473505E-02
       3.0413600E-02
       3.0105238E-02
       2.9866991E-02
       2.9902967E-02
       3.0333187E-02
       3.1305531E-02
       3.0882384E-02
       2.9790547E-02
       3.0801680E-02
       3.1208397E-02
       3.1363554E-02
       3.0825502E-02
       3.0134155E-02
       3.0386634E-02
       3.2326082E-02
       3.0680869E-02
       3.2188610E-02
       3.1813912E-02
       3.1766575E-02
       3.1758173E-02
       3.2572340E-02
       3.2096215E-02
       3.1938049E-02
       3.1741980E-02
       3.2144009E-02
       3.2958650E-02
       3.2505456E-02
       3.2763343E-02
       3.2000915E-02
       3.3588047E-02
       3.1746351E-02
       3.3031907E-02
       3.1009192E-02
       3.2493818E-02
       3.3236154E-02
       3.3807998E-02
       3.3676249E-02
       3.4516857E-02
       3.4091212E-02
       3.3609655E-02
       3.2792522E-02
       3.1515470E-02
       3.2105849E-02
       3.4113363E-02
       3.4195563E-02
       3.4337928E-02
       3.5001467E-02
       3.4757086E-02
       3.3418957E-02
       3.4771131E-02
       3.1128802E-02
       3.1817701E-02
       3.4583256E-02
       3.4483877E-02
       3.4127616E-02
       3.4633128E-02
       3.4965051E-02
       3.0495488E-02
       3.1819680E-02
       3.5479638E-02
       3.1367269E-02
       3.2652103E-02
       3.5142300E-02
       3.5419664E-02
       3.0488194E-02
       3.2324141E-02
       3.2806490E-02
       3.5099602E-02
       3.5518898E-02
       3.5429973E-02
       3.6238272E-02
       3.5977101E-02
       3.0913177E-02
       3.0471170E-02
       3.1109001E-02
       2.9386719E-02
       3.1179447E-02
       2.9945634E-02
       3.0045271E-02
       2.9813675E-02
       3.5955379E-02
       3.7031264E-02
       2.9278226E-02
       3.5773157E-02
       3.6195661E-02
       3.5874030E-02
       3.6563687E-02
       2.8707511E-02
       2.9559360E-02
       2.9108178E-02
       2.8386183E-02
       2.8859316E-02
       2.8915224E-02
       3.5995660E-02
       3.5496598E-02
       3.6478775E-02
       3.5829147E-02
       2.8290076E-02
       2.7824302E-02
       3.5154927E-02
       3.7023471E-02
       3.6400980E-02
       3.4803416E-02
       2.7999794E-02
       3.7029553E-02
       3.5283135E-02
       3.4677956E-02
       2.8585588E-02
       3.6434555E-02
       3.7036708E-02
       3.5790023E-02
       3.7985567E-02
       3.5824828E-02
       3.7674133E-02
       3.7507347E-02
       3.7474292E-02
       3.7687633E-02
       3.7385603E-02
       3.6904994E-02
       3.6736822E-02
       3.8340413E-02
       3.7903229E-02
       3.8625740E-02
       3.7924911E-02
       3.8191194E-02
       2.7979645E-02
       8.1805185E-03
       5.1918745E-03
       1.9207933E-03
       3.6338993E-03
       2.1364398E-03
       3.1780759E-03
       2.9467166E-03
       4.4035466E-03
       5.0128517E-03
       4.2419200E-03
       5.8162530E-03
       1.5948131E-04
       3.7420267E-04
       2.5187241E-03
       2.9177476E-03
       1.7331835E-03
       8.6790446E-04
       3.0580698E-03
       5.5437542E-04
       5.3025620E-04
       1.9051582E-03
       1.1046024E-03
       6.0583530E-04
       1.0375835E-03
       1.8168834E-04
       2.7258509E-02
       2.1249676E-02
       2.0132808E-02
       2.2417081E-02
       2.0910579E-02
       2.1535640E-02
       2.2547997E-02
       2.6081777E-02
       2.4708092E-02
       2.5459370E-02
       2.6265893E-02
       2.4852026E-02
       2.5489448E-02
       2.3894709E-02
       2.5624463E-02
       2.6392581E-02
       2.5883379E-02
       2.7086456E-02
       2.7708641E-02
       2.7040568E-02
       2.6058540E-02
       2.4531396E-02
       2.5330585E-02
       2.4511025E-02
       2.5166334E-02
       2.5997349E-02
       2.5314277E-02
       2.4271012E-02
       2.5172671E-02
       2.4670818E-02
       2.4855754E-02
       2.2993051E-02
       2.4954554E-02
       2.2930646E-02
       2.6077299E-02
       2.4019896E-02
       2.5842867E-02
       2.6703727E-02
       2.3153370E-02
       2.3677184E-02
       2.4622883E-02
       2.6720025E-02
       2.7423112E-02
       2.6892738E-02
       2.5923815E-02
       2.8015264E-02
       2.6551773E-02
       2.6818145E-02
       2.6450625E-02
       2.5425935E-02
       2.7422888E-02
       2.7333143E-02
       2.8350446E-02
       2.7388337E-02
       2.7896612E-02
       2.9028980E-02
       2.8472279E-02
       2.9313616E-02
       1.3359254E-02
       1.5963023E-02
       1.7818201E-02
       1.8733691E-02
       1.7796106E-02
       1.5165458E-02
       6.7790968E-03
       1.6350744E-03
       6.8703228E-03
       3.3390880E-03
       1.8484144E-02
       2.1664046E-02
       1.4786794E-02
       1.3369596E-02
       1.9637196E-02
       1.9803924E-02
       1.8380648E-02
       1.6230662E-02
       1.6803923E-02
       1.7606285E-02
       1.7472638E-02
       1.8917938E-02
       1.4052045E-02
       1.3249150E-02
       1.5339490E-02
       1.5033666E-02
       1.2391059E-02
       1.3721624E-02
       1.4769526E-02
       9.3044058E-03
       8.6292419E-03
       1.1808508E-02
       9.1590888E-03
       1.1065405E-02
       1.1205065E-02
       1.6352082E-02
       8.8648384E-03
       1.1401506E-02
       5.5380891E-03
       3.0102646E-03
       3.2947150E-03
       2.0277132E-03
       2.1450804E-02
       1.8960654E-02
       1.8443494E-02
       6.2506340E-03
       7.4285873E-03
       7.8661324E-03
       5.6391745E-03
       5.9926043E-03
       4.4633879E-03
       2.7150595E-02
       2.6151789E-02
       2.7792909E-02
       2.6068329E-02
       2.8002981E-02
       2.4284062E-02
       2.9108746E-02
       2.3913478E-02
       3.0137997E-02
       2.8877720E-02
       2.5978804E-02
       2.7152370E-02
       1.6046978E-02
       2.9624206E-02
       2.1088569E-02
       2.1309056E-02
       8.9633366E-03
       1.9853935E-02
       3.0805481E-02
       1.3098374E-02
       1.0720221E-02
       1.3501547E-02
       1.3307786E-02
       2.9315849E-02
       3.0688140E-02
       2.3532767E-02
       2.2228495E-02
       3.0736027E-02
       3.2322002E-02
       3.2437437E-02
       3.0667639E-02
       3.2302763E-02
       3.3656135E-02
       3.3348428E-02
       3.5776354E-02
       3.4707137E-02
       3.6618022E-02
       3.6452946E-02
       3.7159585E-02
       3.6454471E-02
       3.7054144E-02
       3.8191736E-02
       3.7648878E-02
       3.7570437E-02
       3.7949300E-02
       3.5159223E-02
       3.5617035E-02
       3.4048315E-02
       3.5198628E-02
       3.7174807E-02
       3.7362131E-02
       3.6615856E-02
       3.6356232E-02
       3.6695944E-02
       3.8346455E-02
       3.9470478E-02
       4.4610704E-03
       4.8824147E-04
       1.3102315E-03
       2.4936033E-04
       2.3026329E-02
       2.3749336E-02
       2.1554373E-02
       2.2485103E-02
       2.3210115E-02
       2.7154637E-02
       2.8507087E-02
       2.8216224E-02
       2.3686278E-02
       2.2714265E-02
       2.1497356E-02
       2.6562264E-02
       2.5978970E-02
       2.2658911E-02
       2.8296859E-02
       2.9920485E-02
       2.6108461E-03
       1.2637132E-03
       4.0004591E-03
       1.6932763E-03
       2.3761827E-03
       6.4113143E-03
       4.9482745E-04
       2.2271593E-03
       2.1241943E-04
       4.4460876E-04
       4.1809261E-04
       6.7035844E-04
       3.8441933E-04
       1.0397671E-03
       1.8987306E-04
       9.5719208E-03
       1.1343627E-02
       3.5496823E-03
       5.4136398E-03
       2.0325206E-02
       2.0664016E-02
       2.2155456E-02
       2.2018130E-02
       2.2988350E-02
       2.3688375E-02
       2.4170004E-02
       1.3165050E-02
       1.2427514E-02
       1.6449352E-02
       1.6978437E-02
       6.9651778E-03
       1.4479239E-02
       1.5528247E-02
       4.3103925E-03
       1.4731784E-02
       1.7005770E-02
       1.8455295E-02
       1.8142711E-02
       1.9655318E-02
       1.8003472E-02
       1.0151583E-03
       1.9715298E-02
       1.6262666E-02
       1.9459908E-02
       1.5415584E-02
       1.5432699E-02
       1.5088413E-02
       8.6817359E-03
       1.2501715E-02
       1.0532378E-02
       1.1427902E-02
       1.0318908E-02
       4.9969985E-03
       1.9078533E-03
       1.8505870E-02
       1.7835516E-02
       1.9989574E-02
       1.3184636E-02
       1.3412686E-02
       1.1930713E-02
       1.5398867E-02
       1.4118815E-02
       1.2952293E-02
       1.7173108E-02
       7.1535575E-03
       1.9989985E-03
       1.4104954E-03
       2.1493347E-02
       1.6793419E-02
       1.1214217E-02
       1.3312050E-02
       1.0474550E-02
       1.5699979E-02
       1.8086535E-02
       1.6768139E-02
       3.1541155E-02
       3.3115582E-02
       3.3164830E-02
       3.3410101E-02
       3.3317473E-02
       3.3710874E-02
       3.2869501E-02
       3.2787375E-02
       3.3322201E-02
       3.2808444E-02
       3.5820399E-02
       3.6448083E-02
       4.2973301E-02
       3.8503442E-02
       3.4852847E-02
       3.9544601E-02
       3.8506656E-02
       3.9412817E-02
       3.8680725E-02
       3.7097221E-02
       4.0996509E-02
       3.2362584E-02
       4.0217917E-02
       4.2001196E-02
       3.5273574E-02
       3.1230200E-02
       4.1703514E-02
       4.1028257E-02
       3.8674838E-02
       3.8839415E-02
       3.9260329E-02
       3.3355342E-02
       4.0100289E-02
       3.5087974E-02
       3.9596462E-02
       3.4014749E-02
       4.1396669E-02
       3.9238933E-02
       4.0416721E-02
       3.9879217E-02
       4.0452545E-02
       3.8957981E-02
       4.1117975E-02
       3.7172739E-02
       4.0718570E-02
       3.6845062E-02
       3.5699658E-02
       4.0279762E-02
       4.1337411E-02
       3.7115964E-02
       3.5941415E-02
       2.0275757E-02
       4.2269957E-02
       1.4879134E-02
       4.2877424E-02
       3.7803367E-02
       4.2190864E-02
       3.3762324E-02
       3.2718778E-02
       4.2400218E-02
       4.2953075E-02
       4.3005237E-02
       4.4148642E-02
       4.2034243E-02
       4.1696853E-02
       3.7084357E-02
       3.4571195E-02
       3.6331012E-02
       3.4307145E-02
       3.3793996E-02
       3.9726368E-02
       3.5651319E-02
       3.6190109E-02
       3.3298412E-02
       3.3651113E-02
       3.5649532E-02
       4.5525639E-02
       3.7848331E-02
       4.0907739E-02
       3.4541265E-02
       4.0712351E-02
       3.5001962E-02
       3.4439172E-02
       3.3482509E-02
       3.2657694E-02
       3.3928463E-02
       3.4324329E-02
       3.4493666E-02
       3.4140679E-02
       3.3675505E-02
       3.4056605E-02
       3.3221743E-02
       3.3998383E-02
       3.2549333E-02
       3.2295542E-02
       3.2879729E-02
       3.2222565E-02
       3.2910882E-02
       3.3477250E-02
       3.3080676E-02
       3.2414453E-02
       3.1738876E-02
       3.1519708E-02
       3.1358154E-02
       3.0345276E-02
       3.2093480E-02
       3.2306653E-02
       3.5376268E-02
       3.7097160E-02
       3.6144511E-02
       3.6628691E-02
       3.8148065E-02
       3.9023126E-02
       3.8663203E-02
       3.9011671E-02
       3.8692317E-02
       3.8173747E-02
       3.9177006E-02
       3.8548520E-02
       3.9993327E-02
       3.8664498E-02
       3.9800480E-02
       3.9381318E-02
       4.0432613E-02
       3.9046599E-02
       3.9316694E-02
       3.9158751E-02
       3.8263945E-02
       3.9748969E-02
       3.8760486E-02
       3.8771533E-02
       3.9376883E-02
       3.9500313E-02