# vtk DataFile Version 3.0
# Solution du M1 TR
ASCII
DATASET UNSTRUCTURED_GRID
POINTS   3280  float
0.0000000E+00  0.0000000E+00  0.2698747E-01
0.2000000E+01  0.0000000E+00  0.1960195E+01
0.2000000E+01  0.1000000E+01  0.1960327E+01
0.0000000E+00  0.1000000E+01  0.2688780E-01
0.1000000E+01  0.0000000E+00  0.9909379E+00
0.1000000E+01  0.1000000E+01  0.9908706E+00
0.1500000E+01  0.5000000E+00  0.1497381E+01
0.1500000E+01  0.0000000E+00  0.1474467E+01
0.1723284E+01  0.3570951E+00  0.1705360E+01
0.1500000E+01  0.2500000E+00  0.1495549E+01
0.1515103E+01  0.2763186E+00  0.1510411E+01
0.1594866E+01  0.2826386E+00  0.1586043E+01
0.1562500E+01  0.1875000E+00  0.1553795E+01
0.1534357E+01  0.1819434E+00  0.1526427E+01
0.1561083E+01  0.3343258E+00  0.1554431E+01
0.1750000E+01  0.0000000E+00  0.1715549E+01
0.1503267E+01  0.1622339E+00  0.1495810E+01
0.1514910E+01  0.2261192E+00  0.1509349E+01
0.1610795E+01  0.1290247E+00  0.1594872E+01
0.1539062E+01  0.1536458E+00  0.1529073E+01
0.1510772E+01  0.1982718E+00  0.1504490E+01
0.1541862E+01  0.2179813E+00  0.1534880E+01
0.1475030E+01  0.2178147E+00  0.1471146E+01
0.1539206E+01  0.2578835E+00  0.1532999E+01
0.1521085E+01  0.2465697E+00  0.1515521E+01
0.1496499E+01  0.2146241E+00  0.1491438E+01
0.1481433E+01  0.1870688E+00  0.1475899E+01
0.1586261E+01  0.1960616E+00  0.1576237E+01
0.1460896E+01  0.2899333E+00  0.1458891E+01
0.1542195E+01  0.2867649E+00  0.1536168E+01
0.1486080E+01  0.2754813E+00  0.1482710E+01
0.1536278E+01  0.3247610E+00  0.1530974E+01
0.1510131E+01  0.3295675E+00  0.1506228E+01
0.1455545E+01  0.2514402E+00  0.1453259E+01
0.1610995E+01  0.1909452E+00  0.1599803E+01
0.1564462E+01  0.2395252E+00  0.1556805E+01
0.1571524E+01  0.3026484E+00  0.1564038E+01
0.1613657E+01  0.2555806E+00  0.1603659E+01
0.1633998E+01  0.2714643E+00  0.1622713E+01
0.1534973E+01  0.3650914E+00  0.1529509E+01
0.1583157E+01  0.2286349E+00  0.1574162E+01
0.1586501E+01  0.1581416E+00  0.1574798E+01
0.1651985E+01  0.2274641E+00  0.1639385E+01
0.1619170E+01  0.2936434E+00  0.1608840E+01
0.1678889E+01  0.2641389E+00  0.1664524E+01
0.1642286E+01  0.2930521E+00  0.1630395E+01
0.1526415E+01  0.3446283E+00  0.1521547E+01
0.1662420E+01  0.3044259E+00  0.1649196E+01
0.1636786E+01  0.2469276E+00  0.1625377E+01
0.1588953E+01  0.3366240E+00  0.1580693E+01
0.1616427E+01  0.3314099E+00  0.1606448E+01
0.1598305E+01  0.3102698E+00  0.1589316E+01
0.1655410E+01  0.2614708E+00  0.1642647E+01
0.1487553E+01  0.3072167E+00  0.1484487E+01
0.1520126E+01  0.3036443E+00  0.1515462E+01
0.1477894E+01  0.2544664E+00  0.1474731E+01
0.1567847E+01  0.2133479E+00  0.1559287E+01
0.1663947E+01  0.3299725E+00  0.1650919E+01
0.1567022E+01  0.2696000E+00  0.1559657E+01
0.1678598E+01  0.3509559E+00  0.1664254E+01
0.1611933E+01  0.3827205E+00  0.1601864E+01
0.1640491E+01  0.3197373E+00  0.1628947E+01
0.1588015E+01  0.2526666E+00  0.1579322E+01
0.1708471E+01  0.3144917E+00  0.1691803E+01
0.1606944E+01  0.3564315E+00  0.1597393E+01
0.1604614E+01  0.2314093E+00  0.1594608E+01
0.1643491E+01  0.3631133E+00  0.1631598E+01
0.2000000E+01  0.5000000E+00  0.1960492E+01
0.1494727E+01  0.3621796E+00  0.1491443E+01
0.1701807E+01  0.3477237E+00  0.1685526E+01
0.1572156E+01  0.3701847E+00  0.1564750E+01
0.1688392E+01  0.3285111E+00  0.1673497E+01
0.1695932E+01  0.3904821E+00  0.1680062E+01
0.1636337E+01  0.3418163E+00  0.1625140E+01
0.1505941E+01  0.9448485E-01  0.1487324E+01
0.1423727E+01  0.1910920E+00  0.1420718E+01
0.1481447E+01  0.3359634E+00  0.1478944E+01
0.1441613E+01  0.3726133E+00  0.1441131E+01
0.1466699E+01  0.3599060E+00  0.1464942E+01
0.1476682E+01  0.4107296E+00  0.1474594E+01
0.1434448E+01  0.3273535E+00  0.1434170E+01
0.1464523E+01  0.3867258E+00  0.1463063E+01
0.1456903E+01  0.3373583E+00  0.1455664E+01
0.1454188E+01  0.3132491E+00  0.1452747E+01
0.1424069E+01  0.2919612E+00  0.1423643E+01
0.1490969E+01  0.3884111E+00  0.1488088E+01
0.1428051E+01  0.4202828E+00  0.1428508E+01
0.1513790E+01  0.3782958E+00  0.1509551E+01
0.1547789E+01  0.4092466E+00  0.1541877E+01
0.1535154E+01  0.3889763E+00  0.1529794E+01
0.1512699E+01  0.4170463E+00  0.1508844E+01
0.1441554E+01  0.3983607E+00  0.1441280E+01
0.1395941E+01  0.3853832E+00  0.1397829E+01
0.1420578E+01  0.3854393E+00  0.1421225E+01
0.1408336E+01  0.3518173E+00  0.1409383E+01
0.1549967E+01  0.3074339E+00  0.1543821E+01
0.1651639E+01  0.4114272E+00  0.1639239E+01
0.1668616E+01  0.3788978E+00  0.1654931E+01
0.1674624E+01  0.4027285E+00  0.1660668E+01
0.1706988E+01  0.4343785E+00  0.1690496E+01
0.1673984E+01  0.4357547E+00  0.1659958E+01
0.1695270E+01  0.4139894E+00  0.1679771E+01
0.1737273E+01  0.4034108E+00  0.1717862E+01
0.1645630E+01  0.3875965E+00  0.1633676E+01
0.1625874E+01  0.4052508E+00  0.1615137E+01
0.1627808E+01  0.4540126E+00  0.1617520E+01
0.1587158E+01  0.4136289E+00  0.1578919E+01
0.1633718E+01  0.4293591E+00  0.1622880E+01
0.1651607E+01  0.4466828E+00  0.1639534E+01
0.1605650E+01  0.4356658E+00  0.1596508E+01
0.1682168E+01  0.4808869E+00  0.1667429E+01
0.1671711E+01  0.4594749E+00  0.1658209E+01
0.1698428E+01  0.4596870E+00  0.1682832E+01
0.1646221E+01  0.4851828E+00  0.1634484E+01
0.1607747E+01  0.4151289E+00  0.1598236E+01
0.1584205E+01  0.4841185E+00  0.1576506E+01
0.1747573E+01  0.4622079E+00  0.1727336E+01
0.1568396E+01  0.4481495E+00  0.1561434E+01
0.1601760E+01  0.4629165E+00  0.1593154E+01
0.1723356E+01  0.4540167E+00  0.1705491E+01
0.1732897E+01  0.4294241E+00  0.1713781E+01
0.1722218E+01  0.4972746E+00  0.1704167E+01
0.1715121E+01  0.4754441E+00  0.1697832E+01
0.1584567E+01  0.4345797E+00  0.1576724E+01
0.1563465E+01  0.4258523E+00  0.1556888E+01
0.1534166E+01  0.4440258E+00  0.1529161E+01
0.1615090E+01  0.4918227E+00  0.1605617E+01
0.1717469E+01  0.4134541E+00  0.1699987E+01
0.1718488E+01  0.3909170E+00  0.1700595E+01
0.1741353E+01  0.3769080E+00  0.1721563E+01
0.1781199E+01  0.4241746E+00  0.1757333E+01
0.2000000E+01  0.2500000E+00  0.1960355E+01
0.1756308E+01  0.4199875E+00  0.1735182E+01
0.1762447E+01  0.3937207E+00  0.1740696E+01
0.1765097E+01  0.4438197E+00  0.1742923E+01
0.1807974E+01  0.4625425E+00  0.1779767E+01
0.1789176E+01  0.4471344E+00  0.1763864E+01
0.1514158E+01  0.1287364E+00  0.1502701E+01
0.1777674E+01  0.4803377E+00  0.1754159E+01
0.1811145E+01  0.4395021E+00  0.1783709E+01
0.1850404E+01  0.4566449E+00  0.1817916E+01
0.1748483E+01  0.3522599E+00  0.1728082E+01
0.1731235E+01  0.3304535E+00  0.1712603E+01
0.1777870E+01  0.3654441E+00  0.1754889E+01
0.1748149E+01  0.2821176E+00  0.1727891E+01
0.1732875E+01  0.3039003E+00  0.1714067E+01
0.1708314E+01  0.2807181E+00  0.1691880E+01
0.1767650E+01  0.3193756E+00  0.1745639E+01
0.1372661E+01  0.1704076E+00  0.1370240E+01
0.1411157E+01  0.2494459E+00  0.1410800E+01
0.1448000E+01  0.2246098E+00  0.1445408E+01
0.1360382E+01  0.2278583E+00  0.1361503E+01
0.1433680E+01  0.2431125E+00  0.1432284E+01
0.1388814E+01  0.2314916E+00  0.1388869E+01
0.1314549E+01  0.2124991E+00  0.1317122E+01
0.1404157E+01  0.2007613E+00  0.1402710E+01
0.1415035E+01  0.1072182E+00  0.1404702E+01
0.1520299E+01  0.1091515E+00  0.1505361E+01
0.1459010E+01  0.1690672E+00  0.1453519E+01
0.1436337E+01  0.2690050E+00  0.1435149E+01
0.1443480E+01  0.1263360E+00  0.1435035E+01
0.1625000E+01  0.0000000E+00  0.1594414E+01
0.1414954E+01  0.2197329E+00  0.1413571E+01
0.1335299E+01  0.2266424E+00  0.1337334E+01
0.1396801E+01  0.1612344E+00  0.1392710E+01
0.1792033E+01  0.3934232E+00  0.1767432E+01
0.1541310E+01  0.1264947E+00  0.1528615E+01
0.1483859E+01  0.1256971E+00  0.1472709E+01
0.1500341E+01  0.1139400E+00  0.1487109E+01
0.1498380E+01  0.1421255E+00  0.1488585E+01
0.1478242E+01  0.1468909E+00  0.1470208E+01
0.1453147E+01  0.1972183E+00  0.1449377E+01
0.1348833E+01  0.2067866E+00  0.1349817E+01
0.1368157E+01  0.2800764E+00  0.1370056E+01
0.1250000E+01  0.0000000E+00  0.1233168E+01
0.1496272E+01  0.2780308E-01  0.1471861E+01
0.1430228E+01  0.1622338E+00  0.1424874E+01
0.1544491E+01  0.1012427E+00  0.1526875E+01
0.1505524E+01  0.5428530E-01  0.1483066E+01
0.1576405E+01  0.1180891E+00  0.1560593E+01
0.1526885E+01  0.8834234E-01  0.1506489E+01
0.1558557E+01  0.6358195E-01  0.1535108E+01
0.1372206E+01  0.9428859E-01  0.1359952E+01
0.1414069E+01  0.8636887E-01  0.1399704E+01
0.1351230E+01  0.1581055E+00  0.1348859E+01
0.1371634E+01  0.2528708E+00  0.1372987E+01
0.1392978E+01  0.2694234E+00  0.1393668E+01
0.1321668E+01  0.2603105E+00  0.1325209E+01
0.1392566E+01  0.3027057E+00  0.1393756E+01
0.1345601E+01  0.2495441E+00  0.1347903E+01
0.1349996E+01  0.1827855E+00  0.1349576E+01
0.1475238E+01  0.9618066E-01  0.1459100E+01
0.1487372E+01  0.4556180E+00  0.1485063E+01
0.1432024E+01  0.3509343E+00  0.1431887E+01
0.1619231E+01  0.5383449E+00  0.1609308E+01
0.1532505E+01  0.4233173E+00  0.1527559E+01
0.1547332E+01  0.4788657E+00  0.1541842E+01
0.1627786E+01  0.4750493E+00  0.1617261E+01
0.1750658E+01  0.4911384E+00  0.1730062E+01
0.1783313E+01  0.5336292E+00  0.1758061E+01
0.1744147E+01  0.5299352E+00  0.1723378E+01
0.1772978E+01  0.5077787E+00  0.1749273E+01
0.1739682E+01  0.5092411E+00  0.1719608E+01
0.1715917E+01  0.5251974E+00  0.1698141E+01
0.1809547E+01  0.4999146E+00  0.1780724E+01
0.1486188E+01  0.5335558E+00  0.1483951E+01
0.1695320E+01  0.5058771E+00  0.1679765E+01
0.1793562E+01  0.5145404E+00  0.1766786E+01
0.1827482E+01  0.5355643E+00  0.1796727E+01
0.1805457E+01  0.5332234E+00  0.1777283E+01
0.1812320E+01  0.5734372E+00  0.1783846E+01
0.1794794E+01  0.5557356E+00  0.1768341E+01
0.1637325E+01  0.5533192E+00  0.1626155E+01
0.1761146E+01  0.5591762E+00  0.1738596E+01
0.1789115E+01  0.5788851E+00  0.1763095E+01
0.1693317E+01  0.6123782E+00  0.1677953E+01
0.1522396E+01  0.5359490E+00  0.1518308E+01
0.1814654E+01  0.6254783E+00  0.1785778E+01
0.1726166E+01  0.5505978E+00  0.1707092E+01
0.1691322E+01  0.5307786E+00  0.1676168E+01
0.1516987E+01  0.5143680E+00  0.1513328E+01
0.1661909E+01  0.5147686E+00  0.1648857E+01
0.1761865E+01  0.6508066E+00  0.1739141E+01
0.1692174E+01  0.5698207E+00  0.1676974E+01
0.1780214E+01  0.6037461E+00  0.1755678E+01
[...]
POINT_DATA    3280
SCALARS hauteur float
LOOKUP_TABLE DEFAULT
       2.6987466E-02
       6.1672318E-05
       1.9375619E-04
       2.6887799E-02
       1.0871301E-02
       1.0804043E-02
       2.7281301E-02
       4.3671134E-03
       1.6427159E-02
       2.5449314E-02
       2.5509056E-02
       2.2968061E-02
       2.2440485E-02
       2.2655069E-02
       2.4465876E-02
       4.3239990E-04
       2.2508403E-02
       2.4636329E-02
       1.6185266E-02
       2.0689559E-02
       2.3833566E-02
       2.3752439E-02
       2.5518074E-02
       2.4475357E-02
       2.4755732E-02
       2.4769226E-02
       2.3996080E-02
       2.1595565E-02
       2.7115147E-02
       2.4713952E-02
       2.6252724E-02
       2.5318875E-02
       2.6199799E-02
       2.6727771E-02
       2.0920960E-02
       2.3527771E-02
       2.3840541E-02
       2.2167201E-02
       2.1286221E-02
       2.5132486E-02
       2.2562460E-02
       1.9921047E-02
       2.0329758E-02
       2.1945951E-02
       1.9100509E-02
       2.0845027E-02
       2.5559385E-02
       1.9913737E-02
       2.1217603E-02
       2.3413730E-02
       2.2242192E-02
       2.2870968E-02
       2.0234917E-02
       2.6586300E-02
       2.5636836E-02
       2.6297061E-02
       2.2692795E-02
       2.0139885E-02
       2.3870503E-02
       1.9115336E-02
       2.2062517E-02
       2.1157124E-02
       2.2962170E-02
       1.7387669E-02
       2.2481503E-02
       2.1978700E-02
       2.0867055E-02
       3.5858110E-04
       2.6511179E-02
       1.7641641E-02
       2.3932294E-02
       1.8760425E-02
       1.7935169E-02
       2.1420354E-02
       1.1401968E-02
       2.5369940E-02
       2.7027475E-02
       2.8254167E-02
       2.7479697E-02
       2.7346546E-02
       2.8316017E-02
       2.7732438E-02
       2.7802192E-02
       2.7545513E-02
       2.7960612E-02
       2.6839025E-02
       2.8923153E-02
       2.5936004E-02
       2.4940969E-02
       2.5240666E-02
       2.6298733E-02
       2.8460236E-02
       2.9714637E-02
       2.8964356E-02
       2.9120652E-02
       2.4750523E-02
       2.0522577E-02
       1.9576878E-02
       1.9424735E-02
       1.7533969E-02
       1.9342148E-02
       1.8293803E-02
       1.5218307E-02
       2.0848617E-02
       2.1671871E-02
       2.2160203E-02
       2.3398584E-02
       2.1727681E-02
       2.0848793E-02
       2.2864279E-02
       1.8792089E-02
       1.9820244E-02
       1.8259427E-02
       2.1077404E-02
       2.2536202E-02
       2.3879399E-02
       1.4598841E-02
       2.4301592E-02
       2.3322109E-02
       1.6487709E-02
       1.5426432E-02
       1.6278486E-02
       1.6899071E-02
       2.3742128E-02
       2.4588213E-02
       2.5576297E-02
       2.2721176E-02
       1.6753869E-02
       1.6362088E-02
       1.4920916E-02
       1.1638559E-02
       2.2223140E-04
       1.3883322E-02
       1.3380173E-02
       1.3010380E-02
       7.8320118E-03
       1.0352584E-02
       1.8724844E-02
       1.1920263E-02
       8.6655057E-03
       4.3972109E-03
       1.4452461E-02
       1.5877012E-02
       1.2458478E-02
       1.4588859E-02
       1.5733785E-02
       1.7618521E-02
       1.3224236E-02
       2.4940498E-02
       2.7772751E-02
       2.6271621E-02
       2.8237958E-02
       2.7182524E-02
       2.7738578E-02
       2.8776565E-02
       2.6542390E-02
       1.7873216E-02
       1.5366025E-02
       2.3592550E-02
       2.7443198E-02
       2.0329182E-02
       1.8060027E-03
       2.6821687E-02
       2.8651967E-02
       2.3751976E-02
       1.1120997E-02
       1.8028503E-02
       1.8428348E-02
       1.6674881E-02
       2.0073521E-02
       2.1432231E-02
       2.5195339E-02
       2.7871284E-02
       2.9170918E-02
       8.0844502E-03
       5.4149151E-03
       2.3154645E-02
       1.3170677E-02
       7.5520214E-03
       1.5611702E-02
       1.0040169E-02
       7.6186994E-03
       1.5099100E-02
       1.3822344E-02
       2.4563075E-02
       2.8694233E-02
       2.8456605E-02
       2.9886484E-02
       2.8948378E-02
       2.9124072E-02
       2.6489643E-02
       1.3268590E-02
       2.7340036E-02
       2.8407611E-02
       2.2353608E-02
       2.5602625E-02
       2.5352928E-02
       2.1922387E-02
       1.4300551E-02
       1.0296031E-02
       1.3998143E-02
       1.1636902E-02
       1.4603641E-02
       1.6428399E-02
       7.2473594E-03
       2.7388043E-02
       1.8237820E-02
       8.9757599E-03
       5.6726173E-03
       7.8147333E-03
       7.6520174E-03
       9.3231747E-03
       2.1467075E-02
       1.2556128E-02
       9.6429585E-03
       1.8390411E-02
       2.6258552E-02
       7.2967111E-03
       1.5333427E-02
       1.8560198E-02
       2.6579590E-02
       2.0075957E-02
       1.2395984E-02
       1.8531416E-02
       1.0949713E-02
       2.4663855E-02
       1.9851033E-02
       1.3617439E-02
       2.3949339E-02
       1.8603685E-02
       1.4868795E-02
       1.3967721E-02
       1.5969284E-02
       1.5570130E-02
       6.3572714E-03
       8.0515335E-03
       3.5906356E-04
       1.2559334E-02
       3.9114886E-03
       1.0548387E-02
       1.2567085E-02
       1.8715141E-02
       1.6348498E-02
       9.5045521E-03
       6.4182401E-03
       6.5350567E-03
       8.5547844E-03
       9.9757823E-03
       1.0033096E-02
       1.2491554E-02
       2.0708185E-02
       2.7004904E-02
       1.7456864E-02
       1.9035167E-02
       2.1152736E-02
       2.2189669E-02
       7.5736569E-03
       1.0477066E-02
       7.0980355E-03
       3.3382082E-03
       3.1699743E-03
       4.4495739E-03
       1.2058529E-02
       1.2248394E-02
       3.6332691E-03
       1.6650026E-02
       6.4576923E-03
       1.5383324E-02
       4.7918038E-03
       1.1248741E-03
       1.1704241E-02
       1.9200737E-02
       1.8006276E-02
       1.9705443E-02
       9.5011580E-03
       1.8106625E-02
       2.2349964E-02
       2.1600926E-02
       2.6030324E-02
       2.4598337E-02
       2.1715348E-02
       2.5437915E-02
       1.2990089E-02
       6.4903112E-03
       2.1876541E-02
       9.8846523E-03
       2.0956332E-02
       7.4406157E-03
       2.8374063E-02
       2.8676455E-02
       2.9425419E-02
       2.9927729E-02
       3.0154526E-02
       2.7049965E-02
       2.6356884E-02
       2.8052102E-02
       2.6012224E-02
       2.6248249E-02
       2.3490343E-02
       2.5496840E-02
       2.1170124E-02
       2.5104289E-02
       2.4479601E-02
       9.0782623E-03
       6.2118516E-03
       4.9379394E-03
       1.2195765E-02
       1.9992027E-02
       5.4152765E-03
       8.2506489E-03
       2.1574966E-02
       2.3727306E-02
       7.5360381E-03
       1.7017642E-02
       8.3230394E-03
       1.5850285E-02
       1.2605590E-02
       1.4150349E-02
       1.4622556E-02
       8.2968422E-03
       4.2400178E-03
       1.4907013E-04
       1.0168816E-02
       2.3459006E-03
       1.2838275E-02
       1.0087863E-02
       1.9952575E-02
       4.2686929E-04
       5.8319017E-03
       1.2082890E-02
       1.0596571E-02
       1.7820880E-02
       1.6597518E-02
       4.1451721E-03
       2.2829525E-02
       2.0740911E-03
       1.4610137E-02
       2.4937220E-02
       1.7984072E-03
       8.5818695E-04
       1.7199425E-02
       1.6708946E-02
       1.8719535E-02
       1.8992595E-02
       9.7185548E-03
       1.8851364E-02
       1.7639124E-02
       1.8566173E-02
       2.0245382E-02
       1.7214986E-02
       1.2317811E-02
       1.5715295E-02
       1.7582939E-02
       6.1873574E-04
       6.0677628E-03
       6.1405454E-03
       8.7353999E-03
       4.6705682E-03
       4.5241286E-03
       2.2251826E-03
       2.2580717E-03
       1.4648915E-03
       1.8537851E-02
       2.0041802E-02
       1.6672093E-02
       1.3899802E-02
       1.7630322E-02
       1.1482167E-02
       5.5567376E-03
       9.9247189E-03
       6.0035193E-03
       5.0298082E-03
       3.8484736E-03
       5.4861327E-03
       6.6573825E-03
       2.7887624E-02
       3.1183238E-02
       2.9470515E-02
       3.0044837E-02
       3.0964973E-02
       2.9605018E-02
       3.0475635E-02
       3.1408487E-02
       3.1145049E-02
       3.2255106E-02
       3.0617709E-02
       3.1750863E-02
       3.2702620E-02
       3.2161218E-02
       3.1786271E-02
       3.1921186E-02
       3.1026272E-02
       2.9747305E-02
       2.9282347E-02
       2.9106089E-02
       2.9063908E-02
       3.0029514E-02
       3.0572384E-02
       3.0721657E-02
       2.7463076E-02
       2.4601289E-02
       2.7700044E-02
       2.6342945E-02
       2.4881272E-02
       3.0080010E-02
       3.1195997E-02
       3.0847944E-02
       3.0527205E-02
       3.0520819E-02
       3.1069917E-02
       3.2258714E-02
       3.1750659E-02
       3.0323862E-02
       3.1633579E-02
       3.2127434E-02
       3.2334673E-02
       3.1702683E-02
       3.0762159E-02
       3.1062236E-02
       3.3467410E-02
       3.1567342E-02
       3.3300285E-02
       3.2864918E-02
       3.2813742E-02
       3.2817828E-02
       3.3726619E-02
       3.3198014E-02
       3.3015102E-02
       3.2777925E-02
       3.3248556E-02
       3.4177613E-02
       3.3669284E-02
       3.3953064E-02
       3.3084089E-02
       3.4830003E-02
       3.2772190E-02
       3.4226553E-02
       3.1830174E-02
       3.3676491E-02
       3.4472441E-02
       3.5103312E-02
       3.4948407E-02
       3.5798657E-02
       3.5357714E-02
       3.4771503E-02
       3.3941634E-02
       3.2476422E-02
       3.3213490E-02
       3.5404201E-02
       3.5528914E-02
       3.5648481E-02
       3.6318034E-02
       3.6058220E-02
       3.4609869E-02
       3.5970227E-02
       3.2004591E-02
       3.2854754E-02
       3.5915763E-02
       3.5847718E-02
       3.5346942E-02
       3.5874250E-02
       3.6217503E-02
       3.1179726E-02
       3.2861836E-02
       3.6722317E-02
       3.2286736E-02
       3.3874564E-02
       3.6406867E-02
       3.6623189E-02
       3.1142112E-02
       3.3483463E-02
       3.4048692E-02
       3.6300800E-02
       3.6611531E-02
       3.6576823E-02
       3.7307570E-02
       3.7025414E-02
       3.1693307E-02
       3.1134892E-02
       3.1930639E-02
       2.9771560E-02
       3.2030390E-02
       3.0484070E-02
       3.0622426E-02
       3.0300918E-02
       3.7109468E-02
       3.7860286E-02
       2.9666630E-02
       3.6906686E-02
       3.7356803E-02
       3.6778493E-02
       3.7526171E-02
       2.8934952E-02
       3.0002215E-02
       2.9424715E-02
       2.8504206E-02
       2.9095977E-02
       2.9158111E-02
       3.7177084E-02
       3.6765526E-02
       3.7552401E-02
       3.6829178E-02
       2.8406620E-02
       2.7835887E-02
       3.6480723E-02
       3.7918985E-02
       3.7297314E-02
       3.5823106E-02
       2.8040432E-02
       3.7656851E-02
       3.6334264E-02
       3.5788446E-02
       2.8754152E-02
       3.7213493E-02
       3.7764831E-02
       3.6460171E-02
       3.8541181E-02
       3.6616997E-02
       3.8228099E-02
       3.8190387E-02
       3.8222277E-02
       3.8456921E-02
       3.8210299E-02
       3.7874682E-02
       3.7783630E-02
       3.8860300E-02
       3.8535538E-02
       3.8989501E-02
       3.8601379E-02
       3.8795599E-02
       2.8105468E-02
       6.8121244E-03
       4.2839859E-03
       1.6299017E-03
       3.0118641E-03
       1.7948142E-03
       2.6544751E-03
       2.4524644E-03
       3.6601971E-03
       4.1867514E-03
       3.5445509E-03
       4.8852938E-03
       1.7684693E-04
       3.5633042E-04
       2.1097400E-03
       2.4401674E-03
       1.4689235E-03
       7.6260414E-04
       2.5613881E-03
       5.0001242E-04
       4.8753129E-04
       1.6067611E-03
       9.5610847E-04
       5.3559229E-04
       8.9426661E-04
       1.9377053E-04
       2.7111387E-02
       2.0431808E-02
       1.9224482E-02
       2.1737165E-02
       2.0118000E-02
       2.0785972E-02
       2.1893938E-02
       2.5828582E-02
       2.4291451E-02
       2.5081221E-02
       2.6026608E-02
       2.4438051E-02
       2.5165479E-02
       2.3375328E-02
       2.5299825E-02
       2.6132473E-02
       2.5500246E-02
       2.6932564E-02
       2.7654312E-02
       2.6843375E-02
       2.5724508E-02
       2.4009076E-02
       2.4896711E-02
       2.3970210E-02
       2.4687449E-02
       2.5636524E-02
       2.4854655E-02
       2.3755800E-02
       2.4727155E-02
       2.4154413E-02
       2.4536948E-02
       2.2336509E-02
       2.4550921E-02
       2.2460010E-02
       2.5834615E-02
       2.3572453E-02
       2.5499439E-02
       2.6472197E-02
       2.2889135E-02
       2.3332398E-02
       2.4445699E-02
       2.6462981E-02
       2.7440560E-02
       2.6758663E-02
       2.5802881E-02
       2.8029464E-02
       2.6453133E-02
       2.6945644E-02
       2.6439836E-02
       2.5373409E-02
       2.7341040E-02
       2.7193210E-02
       2.8412686E-02
       2.7243018E-02
       2.7862652E-02
       2.9292615E-02
       2.8581642E-02
       2.9609960E-02
       1.1757062E-02
       1.4482789E-02
       1.6535324E-02
       1.7559721E-02
       1.6684455E-02
       1.4138659E-02
       5.8251416E-03
       1.4127902E-03
       6.0387798E-03
       2.7945209E-03
       1.7483425E-02
       2.0914044E-02
       1.3898035E-02
       1.2426031E-02
       1.9097848E-02
       1.9358875E-02
       1.7796623E-02
       1.5568630E-02
       1.6091753E-02
       1.7070932E-02
       1.7048754E-02
       1.8572477E-02
       1.3473081E-02
       1.2172397E-02
       1.4388606E-02
       1.4165480E-02
       1.1517515E-02
       1.2809021E-02
       1.4041895E-02
       8.1482207E-03
       7.7778043E-03
       1.0722008E-02
       7.8744481E-03
       9.8086344E-03
       9.8665000E-03
       1.5400415E-02
       7.6753993E-03
       1.0155638E-02
       5.2868134E-03
       2.7758955E-03
       2.9275180E-03
       1.7734272E-03
       2.1132481E-02
       1.9367151E-02
       1.8941182E-02
       6.4004851E-03
       7.5147278E-03
       8.0682729E-03
       5.7113459E-03
       5.9989561E-03
       4.3505643E-03
       2.7768934E-02
       2.6896401E-02
       2.8641719E-02
       2.6846490E-02
       2.8841709E-02
       2.5057393E-02
       3.0010943E-02
       2.4651163E-02
       3.1090500E-02
       2.9774205E-02
       2.6774437E-02
       2.8000387E-02
       1.6763727E-02
       3.0552970E-02
       2.1773412E-02
       2.2026076E-02
       9.6784631E-03
       2.0583541E-02
       3.1797956E-02
       1.3824241E-02
       1.1202486E-02
       1.4197816E-02
       1.3966602E-02
       3.0234327E-02
       3.1669620E-02
       2.4119893E-02
       2.2762905E-02
       3.1525802E-02
       3.3458313E-02
       3.3565148E-02
       3.1414371E-02
       3.3457916E-02
       3.5009603E-02
       3.4641345E-02
       3.7023101E-02
       3.6060239E-02
       3.7627448E-02
       3.7114710E-02
       3.7507396E-02
       3.6989062E-02
       3.7569349E-02
       3.8431617E-02
       3.7987760E-02
       3.8042648E-02
       3.8034868E-02
       3.5451448E-02
       3.6151239E-02
       3.4870054E-02
       3.6103720E-02
       3.8097793E-02
       3.8241007E-02
       3.7683031E-02
       3.7493776E-02
       3.7754755E-02
       3.8730813E-02
       3.9583930E-02
       3.6941191E-03
       4.6801583E-04
       1.1280493E-03
       2.6484968E-04
       2.2425861E-02
       2.3235977E-02
       2.0824553E-02
       2.1803320E-02
       2.2626344E-02
       2.7030690E-02
       2.8635376E-02
       2.8308255E-02
       2.3116738E-02
       2.2064059E-02
       2.0880311E-02
       2.6280388E-02
       2.5603843E-02
       2.2646702E-02
       2.8345558E-02
       3.0405004E-02
       2.2451607E-03
       1.0962998E-03
       3.4715682E-03
       1.4724414E-03
       2.0624216E-03
       5.6550781E-03
       4.4316556E-04
       1.9316195E-03
       1.8900631E-04
       3.8884282E-04
       4.0045949E-04
       6.3152828E-04
       3.3883822E-04
       9.0487737E-04
       1.8881687E-04
       8.5866800E-03
       1.0352715E-02
       2.9984492E-03
       4.5101530E-03
       1.9497705E-02
       1.9866991E-02
       2.1430839E-02
       2.1334615E-02
       2.2321184E-02
       2.3079242E-02
       2.3602237E-02
       1.2222474E-02
       1.1474729E-02
       1.5596412E-02
       1.6332141E-02
       6.1827488E-03
       1.3699341E-02
       1.4766999E-02
       3.7681112E-03
       1.3872030E-02
       1.6306214E-02
       1.7801762E-02
       1.7604237E-02
       1.8981008E-02
       1.7409303E-02
       8.9181007E-04
       1.9147661E-02
       1.5657896E-02
       1.8841687E-02
       1.4750964E-02
       1.4845796E-02
       1.4381399E-02
       7.7669562E-03
       1.1634086E-02
       9.5208800E-03
       1.0583000E-02
       9.3036123E-03
       4.3065308E-03
       1.6579893E-03
       1.8079125E-02
       1.7342080E-02
       1.9519008E-02
       1.2017578E-02
       1.2191640E-02
       1.0617741E-02
       1.4368456E-02
       1.2930631E-02
       1.1696380E-02
       1.6297296E-02
       6.0643904E-03
       1.7714966E-03
       1.2121442E-03
       2.2137446E-02
       1.7441819E-02
       1.1776748E-02
       1.3920690E-02
       1.1111161E-02
       1.6264701E-02
       1.8684845E-02
       1.7455647E-02
       3.2584600E-02
       3.4410959E-02
       3.4474153E-02
       3.4724890E-02
       3.4644007E-02
       3.5072759E-02
       3.4116153E-02
       3.4012197E-02
       3.4596953E-02
       3.4022738E-02
       3.7049886E-02
       3.6825407E-02
       4.1064361E-02
       3.6340076E-02
       3.5310198E-02
       3.8919752E-02
       3.8307839E-02
       3.8991167E-02
       3.8292738E-02
       3.7166675E-02
       3.9881350E-02
       3.2552327E-02
       3.9555457E-02
       4.0525422E-02
       3.5400357E-02
       3.2174811E-02
       4.0516783E-02
       4.0214605E-02
       3.8693173E-02
       3.8962151E-02
       3.9128737E-02
       3.2525567E-02
       3.9834473E-02
       3.5772351E-02
       3.9477574E-02
       3.4415746E-02
       4.0200725E-02
       3.9340321E-02
       3.9829262E-02
       3.9557319E-02
       3.9967853E-02
       3.8777188E-02
       4.0434115E-02
       3.7063732E-02
       4.0193830E-02
       3.6645875E-02
       3.6070169E-02
       4.0005208E-02
       4.0472394E-02
       3.7326952E-02
       3.5884535E-02
       1.6947216E-02
       4.0845156E-02
       1.4167557E-02
       4.1182887E-02
       3.7445160E-02
       4.0969278E-02
       3.4295747E-02
       3.3186493E-02
       4.1032964E-02
       4.1390563E-02
       4.1378005E-02
       4.1915778E-02
       4.0791177E-02
       4.0688639E-02
       3.6611332E-02
       3.5200254E-02
       3.6364002E-02
       3.4563432E-02
       3.3927661E-02
       3.9347730E-02
       3.5193164E-02
       3.6396189E-02
       3.3607849E-02
       3.4615955E-02
       3.5441590E-02
       4.2537296E-02
       3.7720373E-02
       4.0025020E-02
       3.5416466E-02
       3.9794600E-02
       3.5797741E-02
       3.5195609E-02
       3.4226353E-02
       3.3510706E-02
       3.4827891E-02
       3.5405149E-02
       3.5449509E-02
       3.5161177E-02
       3.4764372E-02
       3.5194380E-02
       3.4237777E-02
       3.5172967E-02
       3.3504423E-02
       3.3339005E-02
       3.3940534E-02
       3.3217897E-02
       3.4016724E-02
       3.4614207E-02
       3.4227410E-02
       3.3518165E-02
       3.2785251E-02
       3.2538422E-02
       3.2342833E-02
       3.1279144E-02
       3.3184302E-02
       3.3380868E-02
       3.6363062E-02
       3.8055005E-02
       3.7327693E-02
       3.7614935E-02
       3.8508115E-02
       3.9304085E-02
       3.9086207E-02
       3.9305585E-02
       3.9109438E-02
       3.8752262E-02
       3.9408666E-02
       3.9009958E-02
       3.9853518E-02
       3.9032085E-02
       3.9763223E-02
       3.9510194E-02
       4.0108029E-02
       3.9294876E-02
       3.9338796E-02
       3.9313581E-02
       3.8605477E-02
       3.9649648E-02
       3.9005476E-02
       3.8777966E-02
       3.9495856E-02
       3.9547032E-02