# vtk DataFile Version 3.0
# Solution du M1 TR
ASCII
DATASET UNSTRUCTURED_GRID
POINTS   3280  float
0.0000000E+00  0.0000000E+00  0.2354646E-01
0.2000000E+01  0.0000000E+00  0.1960295E+01
0.2000000E+01  0.1000000E+01  0.1960441E+01
0.0000000E+00  0.1000000E+01  0.2362109E-01
0.1000000E+01  0.0000000E+00  0.9928067E+00
0.1000000E+01  0.1000000E+01  0.9919514E+00
0.1500000E+01  0.5000000E+00  0.1494464E+01
0.1500000E+01  0.0000000E+00  0.1472662E+01
0.1723284E+01  0.3570951E+00  0.1699295E+01
0.1500000E+01  0.2500000E+00  0.1494301E+01
0.1515103E+01  0.2763186E+00  0.1508627E+01
0.1594866E+01  0.2826386E+00  0.1582584E+01
0.1562500E+01  0.1875000E+00  0.1551650E+01
0.1534357E+01  0.1819434E+00  0.1524740E+01
0.1561083E+01  0.3343258E+00  0.1551572E+01
0.1750000E+01  0.0000000E+00  0.1715427E+01
0.1503267E+01  0.1622339E+00  0.1494463E+01
0.1514910E+01  0.2261192E+00  0.1507944E+01
0.1610795E+01  0.1290247E+00  0.1590703E+01
0.1539062E+01  0.1536458E+00  0.1526924E+01
0.1510772E+01  0.1982718E+00  0.1503183E+01
0.1541862E+01  0.2179813E+00  0.1533053E+01
0.1475030E+01  0.2178147E+00  0.1470350E+01
0.1539206E+01  0.2578835E+00  0.1530868E+01
0.1521085E+01  0.2465697E+00  0.1513839E+01
0.1496499E+01  0.2146241E+00  0.1490386E+01
0.1481433E+01  0.1870688E+00  0.1474981E+01
0.1586261E+01  0.1960616E+00  0.1573283E+01
0.1460896E+01  0.2899333E+00  0.1457769E+01
0.1542195E+01  0.2867649E+00  0.1533788E+01
0.1486080E+01  0.2754813E+00  0.1481353E+01
0.1536278E+01  0.3247610E+00  0.1528578E+01
0.1510131E+01  0.3295675E+00  0.1504170E+01
0.1455545E+01  0.2514402E+00  0.1452480E+01
0.1610995E+01  0.1909452E+00  0.1596080E+01
0.1564462E+01  0.2395252E+00  0.1554375E+01
0.1571524E+01  0.3026484E+00  0.1560993E+01
0.1613657E+01  0.2555806E+00  0.1599811E+01
0.1633998E+01  0.2714643E+00  0.1618232E+01
0.1534973E+01  0.3650914E+00  0.1526636E+01
0.1583157E+01  0.2286349E+00  0.1571263E+01
0.1586501E+01  0.1581416E+00  0.1571809E+01
0.1651985E+01  0.2274641E+00  0.1634556E+01
0.1619170E+01  0.2936434E+00  0.1604685E+01
0.1678889E+01  0.2641389E+00  0.1658878E+01
0.1642286E+01  0.2930521E+00  0.1625562E+01
0.1526415E+01  0.3446283E+00  0.1519060E+01
0.1662420E+01  0.3044259E+00  0.1643855E+01
0.1636786E+01  0.2469276E+00  0.1620988E+01
0.1588953E+01  0.3366240E+00  0.1577225E+01
0.1616427E+01  0.3314099E+00  0.1602359E+01
0.1598305E+01  0.3102698E+00  0.1585653E+01
0.1655410E+01  0.2614708E+00  0.1637530E+01
0.1487553E+01  0.3072167E+00  0.1482829E+01
0.1520126E+01  0.3036443E+00  0.1513365E+01
0.1477894E+01  0.2544664E+00  0.1473702E+01
0.1567847E+01  0.2133479E+00  0.1556893E+01
0.1663947E+01  0.3299725E+00  0.1645826E+01
0.1567022E+01  0.2696000E+00  0.1556889E+01
0.1678598E+01  0.3509559E+00  0.1658778E+01
0.1611933E+01  0.3827205E+00  0.1597242E+01
0.1640491E+01  0.3197373E+00  0.1624280E+01
0.1588015E+01  0.2526666E+00  0.1576157E+01
0.1708471E+01  0.3144917E+00  0.1685889E+01
0.1606944E+01  0.3564315E+00  0.1593277E+01
0.1604614E+01  0.2314093E+00  0.1591030E+01
0.1643491E+01  0.3631133E+00  0.1626708E+01
0.2000000E+01  0.5000000E+00  0.1960539E+01
0.1494727E+01  0.3621796E+00  0.1489344E+01
0.1701807E+01  0.3477237E+00  0.1679668E+01
0.1572156E+01  0.3701847E+00  0.1561273E+01
0.1688392E+01  0.3285111E+00  0.1667891E+01
0.1695932E+01  0.3904821E+00  0.1674136E+01
0.1636337E+01  0.3418163E+00  0.1620585E+01
0.1505941E+01  0.9448485E-01  0.1484360E+01
0.1423727E+01  0.1910920E+00  0.1420330E+01
0.1481447E+01  0.3359634E+00  0.1477213E+01
0.1441613E+01  0.3726133E+00  0.1439620E+01
0.1466699E+01  0.3599060E+00  0.1463213E+01
0.1476682E+01  0.4107296E+00  0.1472571E+01
0.1434448E+01  0.3273535E+00  0.1432999E+01
0.1464523E+01  0.3867258E+00  0.1461305E+01
0.1456903E+01  0.3373583E+00  0.1454206E+01
0.1454188E+01  0.3132491E+00  0.1451427E+01
0.1424069E+01  0.2919612E+00  0.1422731E+01
0.1490969E+01  0.3884111E+00  0.1485978E+01
0.1428051E+01  0.4202828E+00  0.1427077E+01
0.1513790E+01  0.3782958E+00  0.1507065E+01
0.1547789E+01  0.4092466E+00  0.1538553E+01
0.1535154E+01  0.3889763E+00  0.1526813E+01
0.1512699E+01  0.4170463E+00  0.1506306E+01
0.1441554E+01  0.3983607E+00  0.1439764E+01
0.1395941E+01  0.3853832E+00  0.1396845E+01
0.1420578E+01  0.3854393E+00  0.1419968E+01
0.1408336E+01  0.3518173E+00  0.1408335E+01
0.1549967E+01  0.3074339E+00  0.1541253E+01
0.1651639E+01  0.4114272E+00  0.1633629E+01
0.1668616E+01  0.3788978E+00  0.1649520E+01
0.1674624E+01  0.4027285E+00  0.1654926E+01
0.1706988E+01  0.4343785E+00  0.1683896E+01
0.1673984E+01  0.4357547E+00  0.1653710E+01
0.1695270E+01  0.4139894E+00  0.1673585E+01
0.1737273E+01  0.4034108E+00  0.1711471E+01
0.1645630E+01  0.3875965E+00  0.1628510E+01
0.1625874E+01  0.4052508E+00  0.1610125E+01
0.1627808E+01  0.4540126E+00  0.1612202E+01
0.1587158E+01  0.4136289E+00  0.1574815E+01
0.1633718E+01  0.4293591E+00  0.1617602E+01
0.1651607E+01  0.4466828E+00  0.1633575E+01
0.1605650E+01  0.4356658E+00  0.1591757E+01
0.1682168E+01  0.4808869E+00  0.1660305E+01
0.1671711E+01  0.4594749E+00  0.1651598E+01
0.1698428E+01  0.4596870E+00  0.1676013E+01
0.1646221E+01  0.4851828E+00  0.1627999E+01
0.1607747E+01  0.4151289E+00  0.1593631E+01
0.1584205E+01  0.4841185E+00  0.1571330E+01
0.1747573E+01  0.4622079E+00  0.1720682E+01
0.1568396E+01  0.4481495E+00  0.1557215E+01
0.1601760E+01  0.4629165E+00  0.1588201E+01
0.1723356E+01  0.4540167E+00  0.1698673E+01
0.1732897E+01  0.4294241E+00  0.1707176E+01
0.1722218E+01  0.4972746E+00  0.1696910E+01
0.1715121E+01  0.4754441E+00  0.1690698E+01
0.1584567E+01  0.4345797E+00  0.1572427E+01
0.1563465E+01  0.4258523E+00  0.1553195E+01
0.1534166E+01  0.4440258E+00  0.1525793E+01
0.1615090E+01  0.4918227E+00  0.1599694E+01
0.1717469E+01  0.4134541E+00  0.1693593E+01
0.1718488E+01  0.3909170E+00  0.1694362E+01
0.1741353E+01  0.3769080E+00  0.1715379E+01
0.1781199E+01  0.4241746E+00  0.1751685E+01
0.2000000E+01  0.2500000E+00  0.1960360E+01
0.1756308E+01  0.4199875E+00  0.1728900E+01
0.1762447E+01  0.3937207E+00  0.1734638E+01
0.1765097E+01  0.4438197E+00  0.1736729E+01
0.1807974E+01  0.4625425E+00  0.1775678E+01
0.1789176E+01  0.4471344E+00  0.1758606E+01
0.1514158E+01  0.1287364E+00  0.1500324E+01
0.1777674E+01  0.4803377E+00  0.1748275E+01
0.1811145E+01  0.4395021E+00  0.1779231E+01
0.1850404E+01  0.4566449E+00  0.1815716E+01
0.1748483E+01  0.3522599E+00  0.1722100E+01
0.1731235E+01  0.3304535E+00  0.1706579E+01
0.1777870E+01  0.3654441E+00  0.1749197E+01
0.1748149E+01  0.2821176E+00  0.1721838E+01
0.1732875E+01  0.3039003E+00  0.1708036E+01
0.1708314E+01  0.2807181E+00  0.1685934E+01
0.1767650E+01  0.3193756E+00  0.1739937E+01
0.1372661E+01  0.1704076E+00  0.1370061E+01
0.1411157E+01  0.2494459E+00  0.1410426E+01
0.1448000E+01  0.2246098E+00  0.1444892E+01
0.1360382E+01  0.2278583E+00  0.1361470E+01
0.1433680E+01  0.2431125E+00  0.1431765E+01
0.1388814E+01  0.2314916E+00  0.1388699E+01
0.1314549E+01  0.2124991E+00  0.1317302E+01
0.1404157E+01  0.2007613E+00  0.1402535E+01
0.1415035E+01  0.1072182E+00  0.1403331E+01
0.1520299E+01  0.1091515E+00  0.1502298E+01
0.1459010E+01  0.1690672E+00  0.1452747E+01
0.1436337E+01  0.2690050E+00  0.1434382E+01
0.1443480E+01  0.1263360E+00  0.1433867E+01
0.1625000E+01  0.0000000E+00  0.1593500E+01
0.1414954E+01  0.2197329E+00  0.1413260E+01
0.1335299E+01  0.2266424E+00  0.1337417E+01
0.1396801E+01  0.1612344E+00  0.1392264E+01
0.1792033E+01  0.3934232E+00  0.1762039E+01
0.1541310E+01  0.1264947E+00  0.1525857E+01
0.1483859E+01  0.1256971E+00  0.1470780E+01
0.1500341E+01  0.1139400E+00  0.1484501E+01
0.1498380E+01  0.1421255E+00  0.1486769E+01
0.1478242E+01  0.1468909E+00  0.1468917E+01
0.1453147E+01  0.1972183E+00  0.1448792E+01
0.1348833E+01  0.2067866E+00  0.1349862E+01
0.1368157E+01  0.2800764E+00  0.1369747E+01
0.1250000E+01  0.0000000E+00  0.1232917E+01
0.1496272E+01  0.2780308E-01  0.1469737E+01
0.1430228E+01  0.1622338E+00  0.1424178E+01
0.1544491E+01  0.1012427E+00  0.1523493E+01
0.1505524E+01  0.5428530E-01  0.1480435E+01
0.1576405E+01  0.1180891E+00  0.1557191E+01
0.1526885E+01  0.8834234E-01  0.1503298E+01
0.1558557E+01  0.6358195E-01  0.1532085E+01
0.1372206E+01  0.9428859E-01  0.1358801E+01
0.1414069E+01  0.8636887E-01  0.1398061E+01
0.1351230E+01  0.1581055E+00  0.1348696E+01
0.1371634E+01  0.2528708E+00  0.1372828E+01
0.1392978E+01  0.2694234E+00  0.1393289E+01
0.1321668E+01  0.2603105E+00  0.1325253E+01
0.1392566E+01  0.3027057E+00  0.1393161E+01
0.1345601E+01  0.2495441E+00  0.1347889E+01
0.1349996E+01  0.1827855E+00  0.1349573E+01
0.1475238E+01  0.9618066E-01  0.1456580E+01
0.1487372E+01  0.4556180E+00  0.1482690E+01
0.1432024E+01  0.3509343E+00  0.1430537E+01
0.1619231E+01  0.5383449E+00  0.1602427E+01
0.1532505E+01  0.4233173E+00  0.1524505E+01
0.1547332E+01  0.4788657E+00  0.1537756E+01
0.1627786E+01  0.4750493E+00  0.1611467E+01
0.1750658E+01  0.4911384E+00  0.1723345E+01
0.1783313E+01  0.5336292E+00  0.1752761E+01
0.1744147E+01  0.5299352E+00  0.1716542E+01
0.1772978E+01  0.5077787E+00  0.1743404E+01
0.1739682E+01  0.5092411E+00  0.1712658E+01
0.1715917E+01  0.5251974E+00  0.1690715E+01
0.1809547E+01  0.4999146E+00  0.1776978E+01
0.1486188E+01  0.5335558E+00  0.1481006E+01
0.1695320E+01  0.5058771E+00  0.1672292E+01
0.1793562E+01  0.5145404E+00  0.1762147E+01
0.1827482E+01  0.5355643E+00  0.1793868E+01
0.1805457E+01  0.5332234E+00  0.1773246E+01
0.1812320E+01  0.5734372E+00  0.1779889E+01
0.1794794E+01  0.5557356E+00  0.1763539E+01
0.1637325E+01  0.5533192E+00  0.1618844E+01
0.1761146E+01  0.5591762E+00  0.1732299E+01
0.1789115E+01  0.5788851E+00  0.1758123E+01
0.1693317E+01  0.6123782E+00  0.1671010E+01
0.1522396E+01  0.5359490E+00  0.1514351E+01
0.1814654E+01  0.6254783E+00  0.1782111E+01
0.1726166E+01  0.5505978E+00  0.1699816E+01
0.1691322E+01  0.5307786E+00  0.1668502E+01
0.1516987E+01  0.5143680E+00  0.1509746E+01
0.1661909E+01  0.5147686E+00  0.1641348E+01
0.1761865E+01  0.6508066E+00  0.1733468E+01
0.1692174E+01  0.5698207E+00  0.1669342E+01
0.1780214E+01  0.6037461E+00  0.1750155E+01
[...]
POINT_DATA    3280
SCALARS hauteur float
LOOKUP_TABLE DEFAULT
       2.3546457E-02
       1.6187521E-04
       3.0779403E-04
       2.3621088E-02
       1.2740100E-02
       1.1884789E-02
       2.4364395E-02
       2.5623991E-03
       1.0361721E-02
       2.4201335E-02
       2.3724510E-02
       1.9509815E-02
       2.0295502E-02
       2.0968155E-02
       2.1606674E-02
       3.1034913E-04
       2.1160858E-02
       2.3231580E-02
       1.2015843E-02
       1.8539882E-02
       2.2526202E-02
       2.1925773E-02
       2.4722777E-02
       2.2344253E-02
       2.3074567E-02
       2.3716945E-02
       2.3078651E-02
       1.8641090E-02
       2.5993755E-02
       2.2334157E-02
       2.4896129E-02
       2.2923148E-02
       2.4141474E-02
       2.5949573E-02
       1.7198300E-02
       2.1097583E-02
       2.0794891E-02
       1.8319720E-02
       1.6805264E-02
       2.2259472E-02
       1.9663527E-02
       1.6932439E-02
       1.5500901E-02
       1.7791091E-02
       1.3455390E-02
       1.6012237E-02
       2.3071684E-02
       1.4572589E-02
       1.6828084E-02
       1.9945723E-02
       1.8153069E-02
       1.9208230E-02
       1.5117336E-02
       2.4928145E-02
       2.3539489E-02
       2.5267536E-02
       2.0298915E-02
       1.5046626E-02
       2.1102900E-02
       1.3639458E-02
       1.7439792E-02
       1.6489376E-02
       1.9797072E-02
       1.1473506E-02
       1.8365400E-02
       1.8400645E-02
       1.5978002E-02
       4.0572723E-04
       2.4411812E-02
       1.1784376E-02
       2.0456173E-02
       1.3153935E-02
       1.2009322E-02
       1.6865319E-02
       8.4376399E-03
       2.4982021E-02
       2.5296653E-02
       2.6743126E-02
       2.5750398E-02
       2.5323425E-02
       2.7145274E-02
       2.5974985E-02
       2.6344265E-02
       2.6225343E-02
       2.7048076E-02
       2.4729673E-02
       2.7492398E-02
       2.3450219E-02
       2.1616698E-02
       2.2259279E-02
       2.3760795E-02
       2.6944369E-02
       2.8730240E-02
       2.7707062E-02
       2.8072208E-02
       2.2182540E-02
       1.4913079E-02
       1.4165449E-02
       1.3682378E-02
       1.0933837E-02
       1.3094341E-02
       1.2107558E-02
       8.8279828E-03
       1.5682744E-02
       1.6660369E-02
       1.6842715E-02
       1.9293851E-02
       1.6449865E-02
       1.4890127E-02
       1.8113544E-02
       1.1667888E-02
       1.3209856E-02
       1.1440930E-02
       1.4593125E-02
       1.7931272E-02
       1.8704121E-02
       7.9443083E-03
       2.0082267E-02
       1.8369384E-02
       9.6701308E-03
       8.8208929E-03
       9.0219832E-03
       9.7654997E-03
       1.9445211E-02
       2.0895138E-02
       2.2208263E-02
       1.6798655E-02
       1.0359420E-02
       1.0128587E-02
       8.7372094E-03
       5.9904406E-03
       2.2643906E-04
       7.6012812E-03
       7.3222724E-03
       6.8165619E-03
       3.7437248E-03
       5.0944989E-03
       1.6347491E-02
       6.0363373E-03
       4.1876208E-03
       2.1969715E-03
       8.4709962E-03
       9.8537665E-03
       6.7661758E-03
       8.5353656E-03
       9.7030400E-03
       1.1672725E-02
       7.5222293E-03
       2.4761402E-02
       2.7398716E-02
       2.5755580E-02
       2.8204996E-02
       2.6663486E-02
       2.7569105E-02
       2.8956295E-02
       2.6367323E-02
       1.6502818E-02
       1.2303355E-02
       2.2820283E-02
       2.6676995E-02
       1.9160717E-02
       8.9143047E-04
       2.6511195E-02
       2.8734847E-02
       2.3305399E-02
       5.7275183E-03
       1.5270463E-02
       1.6499252E-02
       1.4067572E-02
       1.8257562E-02
       2.0140978E-02
       2.4610906E-02
       2.7915639E-02
       2.8861932E-02
       7.8336609E-03
       3.2914937E-03
       2.2458882E-02
       9.7892200E-03
       4.9217135E-03
       1.2209713E-02
       6.8494784E-03
       4.5958740E-03
       1.3948165E-02
       1.2180077E-02
       2.4400222E-02
       2.8535977E-02
       2.8077604E-02
       2.9930453E-02
       2.8353558E-02
       2.9110119E-02
       2.6486843E-02
       1.0749133E-02
       2.4967025E-02
       2.7057812E-02
       1.5473271E-02
       2.2548180E-02
       2.1267424E-02
       1.6128377E-02
       7.5836243E-03
       4.9957210E-03
       7.1617062E-03
       5.7680427E-03
       7.6540470E-03
       9.0018424E-03
       3.5012574E-03
       2.4443376E-02
       1.0765381E-02
       4.3370618E-03
       2.8138777E-03
       3.7775578E-03
       3.6953116E-03
       4.5212647E-03
       1.4156013E-02
       6.2585956E-03
       4.6708981E-03
       1.1447239E-02
       2.2300990E-02
       3.6301118E-03
       8.0581497E-03
       1.0894611E-02
       2.2997250E-02
       1.2566866E-02
       6.7224405E-03
       1.0899290E-02
       5.4268328E-03
       1.9801422E-02
       1.2152876E-02
       7.0399157E-03
       1.8344974E-02
       1.3912386E-02
       8.0946376E-03
       7.6946602E-03
       1.0661193E-02
       1.1111004E-02
       3.3191325E-03
       5.2281750E-03
       4.8436838E-04
       8.8355810E-03
       2.1317549E-03
       5.6911826E-03
       6.4707851E-03
       1.2975930E-02
       1.0073487E-02
       4.6911438E-03
       3.0718459E-03
       3.1435503E-03
       4.1750181E-03
       5.0634682E-03
       5.2059846E-03
       6.8862079E-03
       1.8805566E-02
       2.6956261E-02
       1.3895352E-02
       1.6223265E-02
       1.8770835E-02
       2.1658036E-02
       4.3795565E-03
       6.9576866E-03
       4.1629482E-03
       1.7574765E-03
       1.5260926E-03
       2.4080502E-03
       8.2381012E-03
       7.7889262E-03
       1.7514216E-03
       1.1808253E-02
       3.4041917E-03
       1.0699167E-02
       2.4678063E-03
       5.9721424E-04
       6.9509790E-03
       1.5052888E-02
       1.3844886E-02
       1.6187909E-02
       6.8918364E-03
       1.6336123E-02
       2.2006133E-02
       2.0514794E-02
       2.6141092E-02
       2.4531988E-02
       2.1531354E-02
       2.5227248E-02
       1.1099968E-02
       5.0001029E-03
       2.1080300E-02
       7.6052886E-03
       2.0089020E-02
       5.0239905E-03
       2.7707013E-02
       2.7792103E-02
       2.8695902E-02
       2.9117004E-02
       2.9719752E-02
       2.4738911E-02
       2.3521081E-02
       2.6155896E-02
       2.2621863E-02
       2.2715334E-02
       1.7542632E-02
       2.1180045E-02
       1.3758556E-02
       2.1261328E-02
       1.9956669E-02
       4.4029369E-03
       3.0075761E-03
       2.4832738E-03
       6.0373455E-03
       1.2892907E-02
       2.8047352E-03
       4.0332002E-03
       1.4637931E-02
       1.7697858E-02
       4.3105230E-03
       1.0967423E-02
       4.4719357E-03
       9.3139687E-03
       7.3562916E-03
       9.1545417E-03
       8.7722404E-03
       4.2567541E-03
       2.3847381E-03
       9.6314430E-05
       5.8198965E-03
       1.3758397E-03
       8.5087126E-03
       5.0888108E-03
       1.4300500E-02
       4.1253775E-04
       2.9121359E-03
       7.4414339E-03
       6.7579128E-03
       1.2544054E-02
       9.3190472E-03
       2.6950313E-03
       1.6415551E-02
       1.2693544E-03
       1.0967650E-02
       1.9892804E-02
       1.1458528E-03
       6.3115380E-04
       1.2572585E-02
       1.2952129E-02
       1.2979643E-02
       1.2684882E-02
       6.8101818E-03
       1.5469309E-02
       1.4678889E-02
       1.4592211E-02
       1.6735817E-02
       1.3993553E-02
       8.9795642E-03
       1.2610751E-02
       1.1556334E-02
       4.2155935E-04
       2.9160959E-03
       3.0145694E-03
       4.3837916E-03
       2.4324327E-03
       2.4839428E-03
       1.1095545E-03
       1.0884568E-03
       7.3992619E-04
       1.3223258E-02
       1.5549847E-02
       1.4980570E-02
       1.1739189E-02
       1.6452859E-02
       9.8469307E-03
       3.7381113E-03
       7.9290898E-03
       4.3408641E-03
       3.1401254E-03
       2.0927236E-03
       3.2246996E-03
       3.9889640E-03
       2.7300826E-02
       3.0551702E-02
       2.9021370E-02
       2.9773572E-02
       3.0710808E-02
       2.9477796E-02
       3.0382642E-02
       3.1505393E-02
       3.1091654E-02
       3.2181595E-02
       3.0731490E-02
       3.1723428E-02
       3.2895140E-02
       3.2238349E-02
       3.2077372E-02
       3.2114042E-02
       3.1252193E-02
       2.9927916E-02
       2.9396100E-02
       2.9438205E-02
       2.9320448E-02
       3.0293798E-02
       3.0963381E-02
       3.1042593E-02
       2.7709853E-02
       2.4781800E-02
       2.7888778E-02
       2.6401295E-02
       2.4981791E-02
       2.9469210E-02
       3.0750041E-02
       3.0424515E-02
       2.9916905E-02
       2.9768005E-02
       3.0506256E-02
       3.2049036E-02
       3.1392884E-02
       2.9404006E-02
       3.1215131E-02
       3.1907071E-02
       3.2158080E-02
       3.1429565E-02
       2.9981562E-02
       3.0393298E-02
       3.3612589E-02
       3.1414362E-02
       3.3401487E-02
       3.2819992E-02
       3.2790910E-02
       3.2905355E-02
       3.4045472E-02
       3.3440550E-02
       3.3341131E-02
       3.2724648E-02
       3.3308574E-02
       3.4533966E-02
       3.3870526E-02
       3.4272030E-02
       3.3344661E-02
       3.5428480E-02
       3.2796088E-02
       3.4674975E-02
       3.1623606E-02
       3.3973808E-02
       3.4934778E-02
       3.5778573E-02
       3.5562487E-02
       3.6678807E-02
       3.6100646E-02
       3.5449854E-02
       3.4423870E-02
       3.2486067E-02
       3.3343496E-02
       3.6160992E-02
       3.6414522E-02
       3.6510838E-02
       3.7501426E-02
       3.7074759E-02
       3.5201711E-02
       3.6900064E-02
       3.1794360E-02
       3.3195363E-02
       3.6935361E-02
       3.6950412E-02
       3.6104710E-02
       3.6767258E-02
       3.7234494E-02
       3.0669232E-02
       3.3119685E-02
       3.7978876E-02
       3.2360492E-02
       3.4493617E-02
       3.7526829E-02
       3.7790161E-02
       3.0730422E-02
       3.3940353E-02
       3.4619679E-02
       3.7336090E-02
       3.7774343E-02
       3.7718821E-02
       3.8716076E-02
       3.8321202E-02
       3.1508131E-02
       3.0641448E-02
       3.1935615E-02
       2.8614644E-02
       3.2037373E-02
       2.9707391E-02
       2.9844253E-02
       2.9481063E-02
       3.8469823E-02
       3.9442869E-02
       2.8471879E-02
       3.8174686E-02
       3.8855135E-02
       3.8065109E-02
       3.8996582E-02
       2.7347652E-02
       2.8961558E-02
       2.8047787E-02
       2.6442834E-02
       2.7474947E-02
       2.7617730E-02
       3.8598125E-02
       3.8089150E-02
       3.9064895E-02
       3.8079420E-02
       2.6447865E-02
       2.5406743E-02
       3.7785244E-02
       3.9533470E-02
       3.8700582E-02
       3.6850836E-02
       2.5631255E-02
       3.9218709E-02
       3.7433758E-02
       3.6737435E-02
       2.6893953E-02
       3.8636115E-02
       3.9327736E-02
       3.7817545E-02
       4.0341455E-02
       3.7927836E-02
       3.9941322E-02
       3.9881608E-02
       3.9927439E-02
       4.0284903E-02
       3.9944554E-02
       3.9498915E-02
       3.9437606E-02
       4.0792559E-02
       4.0359456E-02
       4.0929075E-02
       4.0458720E-02
       4.0721595E-02
       2.6412336E-02
       3.3128265E-03
       2.1768828E-03
       1.0015755E-03
       1.6172448E-03
       1.0393295E-03
       1.4838627E-03
       1.3489314E-03
       1.8519464E-03
       2.0604522E-03
       1.7843869E-03
       2.3733359E-03
       2.3425767E-04
       3.5551605E-04
       1.1582589E-03
       1.2843184E-03
       8.4259693E-04
       5.4930881E-04
       1.3443785E-03
       3.8101545E-04
       4.3241584E-04
       8.9481721E-04
       6.1199624E-04
       3.6278977E-04
       5.4623428E-04
       2.3351447E-04
       2.4319549E-02
       1.2996665E-02
       1.1958734E-02
       1.4888473E-02
       1.3522785E-02
       1.3947757E-02
       1.5872430E-02
       2.1558084E-02
       1.8714172E-02
       2.0982157E-02
       2.2235781E-02
       1.9378817E-02
       2.0486385E-02
       1.7886575E-02
       2.1080424E-02
       2.2755309E-02
       2.2337244E-02
       2.3832863E-02
       2.4951142E-02
       2.4157862E-02
       2.2369013E-02
       1.9885929E-02
       2.1119811E-02
       2.0817273E-02
       2.1345316E-02
       2.3118452E-02
       2.1992543E-02
       2.1080271E-02
       2.2106105E-02
       2.1290433E-02
       2.2392976E-02
       1.9056545E-02
       2.2175876E-02
       2.0115642E-02
       2.3703210E-02
       2.1178076E-02
       2.3147000E-02
       2.4323120E-02
       2.0963389E-02
       2.1217698E-02
       2.2532963E-02
       2.4172784E-02
       2.5675545E-02
       2.4781047E-02
       2.3870543E-02
       2.6366764E-02
       2.4487946E-02
       2.5285755E-02
       2.4621832E-02
       2.3569041E-02
       2.5477433E-02
       2.5220328E-02
       2.6863167E-02
       2.5085865E-02
       2.6109817E-02
       2.8204460E-02
       2.7214291E-02
       2.8590957E-02
       5.8138990E-03
       7.5055841E-03
       9.0278808E-03
       9.8888395E-03
       9.7291110E-03
       9.9632579E-03
       3.1331268E-03
       8.3896611E-04
       3.6185286E-03
       1.5906833E-03
       1.0809937E-02
       1.6665145E-02
       1.0663346E-02
       9.2462490E-03
       1.3583783E-02
       1.4143206E-02
       1.1922465E-02
       9.3473704E-03
       9.8162214E-03
       1.1171620E-02
       1.1687440E-02
       1.3830361E-02
       7.8448921E-03
       6.1782333E-03
       8.0925079E-03
       7.8573156E-03
       5.9172899E-03
       6.7420156E-03
       7.9451427E-03
       3.7110158E-03
       3.5221071E-03
       5.2037895E-03
       3.6888121E-03
       4.6684476E-03
       4.7880931E-03
       9.1733193E-03
       3.7608127E-03
       5.3355321E-03
       2.9285282E-03
       1.3999427E-03
       1.4228710E-03
       8.7957861E-04
       1.6968546E-02
       1.8633577E-02
       1.8444171E-02
       4.4775136E-03
       5.3311128E-03
       6.1744234E-03
       3.7203714E-03
       3.8497222E-03
       2.4591494E-03
       2.7887474E-02
       2.7166222E-02
       2.9042160E-02
       2.7169018E-02
       2.9212218E-02
       2.5397512E-02
       3.0436999E-02
       2.4904735E-02
       3.1559542E-02
       3.0229138E-02
       2.7127251E-02
       2.8471169E-02
       1.6983073E-02
       3.1130190E-02
       2.1850218E-02
       2.2204488E-02
       1.0755802E-02
       2.0835031E-02
       3.2232012E-02
       1.4262320E-02
       1.0152155E-02
       1.4268974E-02
       1.3772401E-02
       3.0746220E-02
       3.2219529E-02
       2.4090338E-02
       2.2565918E-02
       3.1073072E-02
       3.3659991E-02
       3.3934995E-02
       3.0968897E-02
       3.3802278E-02
       3.5938143E-02
       3.5255793E-02
       3.8467494E-02
       3.7214488E-02
       3.9154109E-02
       3.8563051E-02
       3.9134542E-02
       3.8478798E-02
       3.9155768E-02
       4.0247660E-02
       3.9701753E-02
       3.9737631E-02
       3.9804924E-02
       3.6899087E-02
       3.7544910E-02
       3.5974441E-02
       3.7269633E-02
       3.9825319E-02
       4.0015452E-02
       3.9267062E-02
       3.9051535E-02
       3.9405420E-02
       4.0583755E-02
       4.1699376E-02
       1.9519315E-03
       4.4268742E-04
       7.5004033E-04
       3.4299317E-04
       1.5706229E-02
       1.6892131E-02
       1.5083014E-02
       1.6885056E-02
       1.6393536E-02
       2.3791060E-02
       2.6794466E-02
       2.6186755E-02
       1.8162246E-02
       1.6916930E-02
       1.8190865E-02
       2.3613499E-02
       2.2851343E-02
       2.1041767E-02
       2.6524924E-02
       2.9738821E-02
       1.3078927E-03
       6.9517255E-04
       2.0561991E-03
       9.9859371E-04
       1.2869990E-03
       3.5426357E-03
       3.3527565E-04
       1.1716610E-03
       1.3383791E-04
       2.5315205E-04
       3.8952797E-04
       5.7698320E-04
       2.0357666E-04
       5.5006516E-04
       1.5014202E-04
       5.4233702E-03
       7.0390108E-03
       1.7025839E-03
       2.3473306E-03
       1.4528704E-02
       1.5742280E-02
       1.7784939E-02
       1.8217494E-02
       1.8345189E-02
       1.9694795E-02
       1.9897827E-02
       8.9680912E-03
       8.3963201E-03
       1.2271966E-02
       1.3358870E-02
       4.0779714E-03
       1.0332211E-02
       1.1563107E-02
       2.3626421E-03
       1.0661570E-02
       1.3308857E-02
       1.5015163E-02
       1.4970681E-02
       1.6197360E-02
       1.4624303E-02
       6.6009555E-04
       1.6613811E-02
       1.2612190E-02
       1.6209220E-02
       1.1518010E-02
       1.1808554E-02
       1.1134827E-02
       4.7582398E-03
       8.0231195E-03
       6.0401324E-03
       7.2448272E-03
       5.7509532E-03
       2.5190285E-03
       1.0797909E-03
       1.5723267E-02
       1.4787419E-02
       1.7214951E-02
       6.1386636E-03
       6.3594032E-03
       5.3862733E-03
       8.1346228E-03
       7.0181855E-03
       6.2339845E-03
       1.0171706E-02
       3.0054011E-03
       8.7247135E-04
       6.4612380E-04
       2.2146390E-02
       1.7290907E-02
       1.1078249E-02
       1.3443551E-02
       1.0748702E-02
       1.5740763E-02
       1.8396927E-02
       1.7469190E-02
       3.3052862E-02
       3.5160855E-02
       3.5310737E-02
       3.5479563E-02
       3.5513311E-02
       3.6052469E-02
       3.4612482E-02
       3.4374723E-02
       3.5127526E-02
       3.4350214E-02
       3.8469489E-02
       3.8353857E-02
       4.3378233E-02
       3.8225542E-02
       3.6672740E-02
       4.0923132E-02
       4.0170349E-02
       4.0982782E-02
       4.0188331E-02
       3.8836278E-02
       4.2039359E-02
       3.3962283E-02
       4.1655596E-02
       4.2763163E-02
       3.6918353E-02
       3.2919664E-02
       4.2782439E-02
       4.2440683E-02
       4.0583788E-02
       4.0900566E-02
       4.1116110E-02
       3.4241554E-02
       4.2002561E-02
       3.7053145E-02
       4.1548460E-02
       3.5766607E-02
       4.2405323E-02
       4.1372765E-02
       4.1982285E-02
       4.1650685E-02
       4.2155601E-02
       4.0701679E-02
       4.2727172E-02
       3.8773701E-02
       4.2436391E-02
       3.8343427E-02
       3.7526558E-02
       4.2227792E-02
       4.2746917E-02
       3.8966030E-02
       3.7494868E-02
       1.8971138E-02
       4.3166171E-02
       1.6701173E-02
       4.3548156E-02
       3.9246815E-02
       4.3344790E-02
       3.5564913E-02
       3.4459323E-02
       4.3410360E-02
       4.3800869E-02
       4.3784422E-02
       4.4348781E-02
       4.3119881E-02
       4.3017934E-02
       3.8368947E-02
       3.6465384E-02
       3.7974736E-02
       3.5988640E-02
       3.5385589E-02
       4.1395695E-02
       3.6880577E-02
       3.7944169E-02
       3.4974944E-02
       3.5554178E-02
       3.7073927E-02
       4.4947145E-02
       3.9500771E-02
       4.2215529E-02
       3.6518519E-02
       4.1944999E-02
       3.7006374E-02
       3.6385756E-02
       3.5353106E-02
       3.4485546E-02
       3.5851458E-02
       3.6309862E-02
       3.6482317E-02
       3.6091211E-02
       3.5570333E-02
       3.5999334E-02
       3.5082544E-02
       3.5917773E-02
       3.4363776E-02
       3.4021557E-02
       3.4685327E-02
       3.3986870E-02
       3.4675336E-02
       3.5319361E-02
       3.4818043E-02
       3.4047030E-02
       3.3328477E-02
       3.3151459E-02
       3.3027044E-02
       3.1971283E-02
       3.3608502E-02
       3.3984737E-02
       3.7519509E-02
       3.9790500E-02
       3.8864543E-02
       3.9151574E-02
       4.0320673E-02
       4.1342866E-02
       4.1086061E-02
       4.1351187E-02
       4.1115707E-02
       4.0656865E-02
       4.1489056E-02
       4.0981911E-02
       4.2035711E-02
       4.0971682E-02
       4.1936806E-02
       4.1616912E-02
       4.2349082E-02
       4.1320898E-02
       4.1352025E-02
       4.1333930E-02
       4.0395468E-02
       4.1755575E-02
       4.0919427E-02
       4.0607728E-02
       4.1570492E-02
       4.1651039E-02