# vtk DataFile Version 3.0
# Solution du M1 TR
ASCII
DATASET UNSTRUCTURED_GRID
POINTS   3280  float
0.0000000E+00  0.0000000E+00  0.2350181E-01
0.2000000E+01  0.0000000E+00  0.1960277E+01
0.2000000E+01  0.1000000E+01  0.1960429E+01
0.0000000E+00  0.1000000E+01  0.2367375E-01
0.1000000E+01  0.0000000E+00  0.9926374E+00
0.1000000E+01  0.1000000E+01  0.9920123E+00
0.1500000E+01  0.5000000E+00  0.1495424E+01
0.1500000E+01  0.0000000E+00  0.1472974E+01
0.1723284E+01  0.3570951E+00  0.1700193E+01
0.1500000E+01  0.2500000E+00  0.1494810E+01
0.1515103E+01  0.2763186E+00  0.1509243E+01
0.1594866E+01  0.2826386E+00  0.1583493E+01
0.1562500E+01  0.1875000E+00  0.1552406E+01
0.1534357E+01  0.1819434E+00  0.1525389E+01
0.1561083E+01  0.3343258E+00  0.1552362E+01
0.1750000E+01  0.0000000E+00  0.1715428E+01
0.1503267E+01  0.1622339E+00  0.1495013E+01
0.1514910E+01  0.2261192E+00  0.1508510E+01
0.1610795E+01  0.1290247E+00  0.1591703E+01
0.1539062E+01  0.1536458E+00  0.1527671E+01
0.1510772E+01  0.1982718E+00  0.1503731E+01
0.1541862E+01  0.2179813E+00  0.1533726E+01
0.1475030E+01  0.2178147E+00  0.1470741E+01
0.1539206E+01  0.2578835E+00  0.1531579E+01
0.1521085E+01  0.2465697E+00  0.1514461E+01
0.1496499E+01  0.2146241E+00  0.1490860E+01
0.1481433E+01  0.1870688E+00  0.1475414E+01
0.1586261E+01  0.1960616E+00  0.1574191E+01
0.1460896E+01  0.2899333E+00  0.1458210E+01
0.1542195E+01  0.2867649E+00  0.1534519E+01
0.1486080E+01  0.2754813E+00  0.1481866E+01
0.1536278E+01  0.3247610E+00  0.1529287E+01
0.1510131E+01  0.3295675E+00  0.1504809E+01
0.1455545E+01  0.2514402E+00  0.1452846E+01
0.1610995E+01  0.1909452E+00  0.1597102E+01
0.1564462E+01  0.2395252E+00  0.1555160E+01
0.1571524E+01  0.3026484E+00  0.1561825E+01
0.1613657E+01  0.2555806E+00  0.1600782E+01
0.1633998E+01  0.2714643E+00  0.1619246E+01
0.1534973E+01  0.3650914E+00  0.1527430E+01
0.1583157E+01  0.2286349E+00  0.1572147E+01
0.1586501E+01  0.1581416E+00  0.1572722E+01
0.1651985E+01  0.2274641E+00  0.1635631E+01
0.1619170E+01  0.2936434E+00  0.1605660E+01
0.1678889E+01  0.2641389E+00  0.1659908E+01
0.1642286E+01  0.2930521E+00  0.1626585E+01
0.1526415E+01  0.3446283E+00  0.1519780E+01
0.1662420E+01  0.3044259E+00  0.1644881E+01
0.1636786E+01  0.2469276E+00  0.1622023E+01
0.1588953E+01  0.3366240E+00  0.1578105E+01
0.1616427E+01  0.3314099E+00  0.1603310E+01
0.1598305E+01  0.3102698E+00  0.1586568E+01
0.1655410E+01  0.2614708E+00  0.1638579E+01
0.1487553E+01  0.3072167E+00  0.1483393E+01
0.1520126E+01  0.3036443E+00  0.1514025E+01
0.1477894E+01  0.2544664E+00  0.1474141E+01
0.1567847E+01  0.2133479E+00  0.1557695E+01
0.1663947E+01  0.3299725E+00  0.1646822E+01
0.1567022E+01  0.2696000E+00  0.1557706E+01
0.1678598E+01  0.3509559E+00  0.1659769E+01
0.1611933E+01  0.3827205E+00  0.1598262E+01
0.1640491E+01  0.3197373E+00  0.1625277E+01
0.1588015E+01  0.2526666E+00  0.1577053E+01
0.1708471E+01  0.3144917E+00  0.1686823E+01
0.1606944E+01  0.3564315E+00  0.1594233E+01
0.1604614E+01  0.2314093E+00  0.1592012E+01
0.1643491E+01  0.3631133E+00  0.1627712E+01
0.2000000E+01  0.5000000E+00  0.1960533E+01
0.1494727E+01  0.3621796E+00  0.1489988E+01
0.1701807E+01  0.3477237E+00  0.1680615E+01
0.1572156E+01  0.3701847E+00  0.1562162E+01
0.1688392E+01  0.3285111E+00  0.1668875E+01
0.1695932E+01  0.3904821E+00  0.1675111E+01
0.1636337E+01  0.3418163E+00  0.1621566E+01
0.1505941E+01  0.9448485E-01  0.1485069E+01
0.1423727E+01  0.1910920E+00  0.1420580E+01
0.1481447E+01  0.3359634E+00  0.1477779E+01
0.1441613E+01  0.3726133E+00  0.1440131E+01
0.1466699E+01  0.3599060E+00  0.1463775E+01
0.1476682E+01  0.4107296E+00  0.1473218E+01
0.1434448E+01  0.3273535E+00  0.1433427E+01
0.1464523E+01  0.3867258E+00  0.1461881E+01
0.1456903E+01  0.3373583E+00  0.1454704E+01
0.1454188E+01  0.3132491E+00  0.1451900E+01
0.1424069E+01  0.2919612E+00  0.1423103E+01
0.1490969E+01  0.3884111E+00  0.1486632E+01
0.1428051E+01  0.4202828E+00  0.1427592E+01
0.1513790E+01  0.3782958E+00  0.1507792E+01
0.1547789E+01  0.4092466E+00  0.1539449E+01
0.1535154E+01  0.3889763E+00  0.1527638E+01
0.1512699E+01  0.4170463E+00  0.1507063E+01
0.1441554E+01  0.3983607E+00  0.1440284E+01
0.1395941E+01  0.3853832E+00  0.1397221E+01
0.1420578E+01  0.3854393E+00  0.1420418E+01
0.1408336E+01  0.3518173E+00  0.1408725E+01
0.1549967E+01  0.3074339E+00  0.1542000E+01
0.1651639E+01  0.4114272E+00  0.1634710E+01
0.1668616E+01  0.3788978E+00  0.1650532E+01
0.1674624E+01  0.4027285E+00  0.1655966E+01
0.1706988E+01  0.4343785E+00  0.1684880E+01
0.1673984E+01  0.4357547E+00  0.1654779E+01
0.1695270E+01  0.4139894E+00  0.1674599E+01
0.1737273E+01  0.4034108E+00  0.1712313E+01
0.1645630E+01  0.3875965E+00  0.1629551E+01
0.1625874E+01  0.4052508E+00  0.1611186E+01
0.1627808E+01  0.4540126E+00  0.1613322E+01
0.1587158E+01  0.4136289E+00  0.1575810E+01
0.1633718E+01  0.4293591E+00  0.1618700E+01
0.1651607E+01  0.4466828E+00  0.1634698E+01
0.1605650E+01  0.4356658E+00  0.1592833E+01
0.1682168E+01  0.4808869E+00  0.1661358E+01
0.1671711E+01  0.4594749E+00  0.1652702E+01
0.1698428E+01  0.4596870E+00  0.1677037E+01
0.1646221E+01  0.4851828E+00  0.1629161E+01
0.1607747E+01  0.4151289E+00  0.1594671E+01
0.1584205E+01  0.4841185E+00  0.1572507E+01
0.1747573E+01  0.4622079E+00  0.1721464E+01
0.1568396E+01  0.4481495E+00  0.1558261E+01
0.1601760E+01  0.4629165E+00  0.1589320E+01
0.1723356E+01  0.4540167E+00  0.1699590E+01
0.1732897E+01  0.4294241E+00  0.1708027E+01
0.1722218E+01  0.4972746E+00  0.1697784E+01
0.1715121E+01  0.4754441E+00  0.1691629E+01
0.1584567E+01  0.4345797E+00  0.1573465E+01
0.1563465E+01  0.4258523E+00  0.1554156E+01
0.1534166E+01  0.4440258E+00  0.1526728E+01
0.1615090E+01  0.4918227E+00  0.1600896E+01
0.1717469E+01  0.4134541E+00  0.1694529E+01
0.1718488E+01  0.3909170E+00  0.1695268E+01
0.1741353E+01  0.3769080E+00  0.1716197E+01
0.1781199E+01  0.4241746E+00  0.1752283E+01
0.2000000E+01  0.2500000E+00  0.1960360E+01
0.1756308E+01  0.4199875E+00  0.1729650E+01
0.1762447E+01  0.3937207E+00  0.1735357E+01
0.1765097E+01  0.4438197E+00  0.1737409E+01
0.1807974E+01  0.4625425E+00  0.1776032E+01
0.1789176E+01  0.4471344E+00  0.1759110E+01
0.1514158E+01  0.1287364E+00  0.1501086E+01
0.1777674E+01  0.4803377E+00  0.1748872E+01
0.1811145E+01  0.4395021E+00  0.1779638E+01
0.1850404E+01  0.4566449E+00  0.1815892E+01
0.1748483E+01  0.3522599E+00  0.1722882E+01
0.1731235E+01  0.3304535E+00  0.1707439E+01
0.1777870E+01  0.3654441E+00  0.1749855E+01
0.1748149E+01  0.2821176E+00  0.1722634E+01
0.1732875E+01  0.3039003E+00  0.1708888E+01
0.1708314E+01  0.2807181E+00  0.1686892E+01
0.1767650E+01  0.3193756E+00  0.1740636E+01
0.1372661E+01  0.1704076E+00  0.1370220E+01
0.1411157E+01  0.2494459E+00  0.1410656E+01
0.1448000E+01  0.2246098E+00  0.1445189E+01
0.1360382E+01  0.2278583E+00  0.1361579E+01
0.1433680E+01  0.2431125E+00  0.1432049E+01
0.1388814E+01  0.2314916E+00  0.1388862E+01
0.1314549E+01  0.2124991E+00  0.1317330E+01
0.1404157E+01  0.2007613E+00  0.1402709E+01
0.1415035E+01  0.1072182E+00  0.1403837E+01
0.1520299E+01  0.1091515E+00  0.1503140E+01
0.1459010E+01  0.1690672E+00  0.1453121E+01
0.1436337E+01  0.2690050E+00  0.1434730E+01
0.1443480E+01  0.1263360E+00  0.1434331E+01
0.1625000E+01  0.0000000E+00  0.1593586E+01
0.1414954E+01  0.2197329E+00  0.1413481E+01
0.1335299E+01  0.2266424E+00  0.1337482E+01
0.1396801E+01  0.1612344E+00  0.1392514E+01
0.1792033E+01  0.3934232E+00  0.1762610E+01
0.1541310E+01  0.1264947E+00  0.1526689E+01
0.1483859E+01  0.1256971E+00  0.1471435E+01
0.1500341E+01  0.1139400E+00  0.1485284E+01
0.1498380E+01  0.1421255E+00  0.1487418E+01
0.1478242E+01  0.1468909E+00  0.1469432E+01
0.1453147E+01  0.1972183E+00  0.1449118E+01
0.1348833E+01  0.2067866E+00  0.1349944E+01
0.1368157E+01  0.2800764E+00  0.1369935E+01
0.1250000E+01  0.0000000E+00  0.1233304E+01
0.1496272E+01  0.2780308E-01  0.1470124E+01
0.1430228E+01  0.1622338E+00  0.1424513E+01
0.1544491E+01  0.1012427E+00  0.1524318E+01
0.1505524E+01  0.5428530E-01  0.1480956E+01
0.1576405E+01  0.1180891E+00  0.1558069E+01
0.1526885E+01  0.8834234E-01  0.1503970E+01
0.1558557E+01  0.6358195E-01  0.1532600E+01
0.1372206E+01  0.9428859E-01  0.1359257E+01
0.1414069E+01  0.8636887E-01  0.1398615E+01
0.1351230E+01  0.1581055E+00  0.1348842E+01
0.1371634E+01  0.2528708E+00  0.1372975E+01
0.1392978E+01  0.2694234E+00  0.1393508E+01
0.1321668E+01  0.2603105E+00  0.1325323E+01
0.1392566E+01  0.3027057E+00  0.1393433E+01
0.1345601E+01  0.2495441E+00  0.1347984E+01
0.1349996E+01  0.1827855E+00  0.1349669E+01
0.1475238E+01  0.9618066E-01  0.1457287E+01
0.1487372E+01  0.4556180E+00  0.1483467E+01
0.1432024E+01  0.3509343E+00  0.1431005E+01
0.1619231E+01  0.5383449E+00  0.1603684E+01
0.1532505E+01  0.4233173E+00  0.1525366E+01
0.1547332E+01  0.4788657E+00  0.1538843E+01
0.1627786E+01  0.4750493E+00  0.1612621E+01
0.1750658E+01  0.4911384E+00  0.1724091E+01
0.1783313E+01  0.5336292E+00  0.1753232E+01
0.1744147E+01  0.5299352E+00  0.1717241E+01
0.1772978E+01  0.5077787E+00  0.1743966E+01
0.1739682E+01  0.5092411E+00  0.1713409E+01
0.1715917E+01  0.5251974E+00  0.1691584E+01
0.1809547E+01  0.4999146E+00  0.1777292E+01
0.1486188E+01  0.5335558E+00  0.1482013E+01
0.1695320E+01  0.5058771E+00  0.1673299E+01
0.1793562E+01  0.5145404E+00  0.1762550E+01
0.1827482E+01  0.5355643E+00  0.1794099E+01
0.1805457E+01  0.5332234E+00  0.1773582E+01
0.1812320E+01  0.5734372E+00  0.1780211E+01
0.1794794E+01  0.5557356E+00  0.1763952E+01
0.1637325E+01  0.5533192E+00  0.1620056E+01
0.1761146E+01  0.5591762E+00  0.1732899E+01
0.1789115E+01  0.5788851E+00  0.1758550E+01
0.1693317E+01  0.6123782E+00  0.1671992E+01
0.1522396E+01  0.5359490E+00  0.1515504E+01
0.1814654E+01  0.6254783E+00  0.1782423E+01
0.1726166E+01  0.5505978E+00  0.1700600E+01
0.1691322E+01  0.5307786E+00  0.1669522E+01
0.1516987E+01  0.5143680E+00  0.1510830E+01
0.1661909E+01  0.5147686E+00  0.1642474E+01
0.1761865E+01  0.6508066E+00  0.1734064E+01
0.1692174E+01  0.5698207E+00  0.1670357E+01
0.1780214E+01  0.6037461E+00  0.1750659E+01
[...]
POINT_DATA    3280
SCALARS hauteur float
LOOKUP_TABLE DEFAULT
       2.3501810E-02
       1.4426952E-04
       2.9628059E-04
       2.3673747E-02
       1.2570838E-02
       1.1945742E-02
       2.5323833E-02
       2.8742429E-03
       1.1260271E-02
       2.4709767E-02
       2.4340691E-02
       2.0418414E-02
       2.1051916E-02
       2.1616252E-02
       2.2396290E-02
       3.1113274E-04
       2.1711399E-02
       2.3797322E-02
       1.3015918E-02
       1.9286881E-02
       2.3074168E-02
       2.2598963E-02
       2.5113252E-02
       2.3054768E-02
       2.3696308E-02
       2.4191459E-02
       2.3511627E-02
       1.9549034E-02
       2.6434898E-02
       2.3065898E-02
       2.5408790E-02
       2.3631973E-02
       2.4780630E-02
       2.6315270E-02
       1.8219775E-02
       2.1882936E-02
       2.1627630E-02
       1.9289824E-02
       1.7819329E-02
       2.3053415E-02
       2.0547282E-02
       1.7844996E-02
       1.6575755E-02
       1.8766146E-02
       1.4484637E-02
       1.7035418E-02
       2.3792610E-02
       1.5598317E-02
       1.7863564E-02
       2.0825299E-02
       1.9104361E-02
       2.0123532E-02
       1.6166338E-02
       2.5491633E-02
       2.4200118E-02
       2.5706270E-02
       2.1100347E-02
       1.6043228E-02
       2.1919450E-02
       1.4630909E-02
       1.8460416E-02
       1.7486406E-02
       2.0692771E-02
       1.2407941E-02
       1.9320761E-02
       1.9382746E-02
       1.6981631E-02
       4.0014133E-04
       2.5055816E-02
       1.2731363E-02
       2.1344827E-02
       1.4137807E-02
       1.2984625E-02
       1.7846345E-02
       9.1470617E-03
       2.5232449E-02
       2.5861999E-02
       2.7254281E-02
       2.6312285E-02
       2.5971249E-02
       2.7572568E-02
       2.6550857E-02
       2.6842225E-02
       2.6699069E-02
       2.7420886E-02
       2.5383603E-02
       2.8007460E-02
       2.4177377E-02
       2.2512209E-02
       2.3084147E-02
       2.4517436E-02
       2.7464859E-02
       2.9106400E-02
       2.8157039E-02
       2.8461972E-02
       2.2929689E-02
       1.5994415E-02
       1.5177530E-02
       1.4722990E-02
       1.1918596E-02
       1.4162946E-02
       1.3121619E-02
       9.6695576E-03
       1.6724247E-02
       1.7721153E-02
       1.7962544E-02
       2.0289321E-02
       1.7547899E-02
       1.6012747E-02
       1.9188908E-02
       1.2720977E-02
       1.4313388E-02
       1.2464751E-02
       1.5754243E-02
       1.8971796E-02
       1.9881188E-02
       8.7267664E-03
       2.1127960E-02
       1.9487621E-02
       1.0586508E-02
       9.6724826E-03
       9.8953681E-03
       1.0696521E-02
       2.0483289E-02
       2.1856534E-02
       2.3143322E-02
       1.8000617E-02
       1.1295329E-02
       1.1034751E-02
       9.5554728E-03
       6.5890186E-03
       2.2670671E-04
       8.3512663E-03
       8.0415245E-03
       7.4967944E-03
       4.0971014E-03
       5.5987908E-03
       1.7109722E-02
       6.6338011E-03
       4.5952611E-03
       2.3734129E-03
       9.2520982E-03
       1.0712945E-02
       7.4241143E-03
       9.3320002E-03
       1.0554812E-02
       1.2630851E-02
       8.2218136E-03
       2.4920653E-02
       2.7628417E-02
       2.6052098E-02
       2.8314318E-02
       2.6946886E-02
       2.7731664E-02
       2.8984341E-02
       2.6540811E-02
       1.7008173E-02
       1.3145454E-02
       2.3194220E-02
       2.7024453E-02
       1.9625089E-02
       9.7781250E-04
       2.6731834E-02
       2.8799920E-02
       2.3556073E-02
       6.2989782E-03
       1.6102261E-02
       1.7154350E-02
       1.4850171E-02
       1.8906481E-02
       2.0656195E-02
       2.4937239E-02
       2.7998248E-02
       2.9049590E-02
       8.2206779E-03
       3.6786862E-03
       2.2794261E-02
       1.0614265E-02
       5.4422244E-03
       1.3086939E-02
       7.5206504E-03
       5.1101828E-03
       1.4403775E-02
       1.2734067E-02
       2.4546622E-02
       2.8682661E-02
       2.8296900E-02
       3.0000405E-02
       2.8625908E-02
       2.9204932E-02
       2.6583081E-02
       1.1455493E-02
       2.5744067E-02
       2.7525880E-02
       1.6730074E-02
       2.3408820E-02
       2.2353880E-02
       1.7282474E-02
       8.3298396E-03
       5.4666836E-03
       7.8607008E-03
       6.3294555E-03
       8.4048399E-03
       9.8711840E-03
       3.8153968E-03
       2.5449532E-02
       1.1772655E-02
       4.7400642E-03
       3.0453718E-03
       4.1135960E-03
       4.0173520E-03
       4.9342404E-03
       1.5368814E-02
       6.8589605E-03
       5.0977431E-03
       1.2428953E-02
       2.3454074E-02
       3.9413534E-03
       8.8420209E-03
       1.1913781E-02
       2.4082174E-02
       1.3692811E-02
       7.3188371E-03
       1.1913936E-02
       5.9308394E-03
       2.0987381E-02
       1.3262415E-02
       7.7091011E-03
       1.9591683E-02
       1.4625854E-02
       8.8495411E-03
       8.3886066E-03
       1.1370296E-02
       1.1706693E-02
       3.5952461E-03
       5.5590029E-03
       4.8046831E-04
       9.3089094E-03
       2.2897244E-03
       6.1865754E-03
       7.0764534E-03
       1.3972074E-02
       1.1037576E-02
       5.1564444E-03
       3.3635566E-03
       3.4374367E-03
       4.5867599E-03
       5.5652336E-03
       5.7104635E-03
       7.5433966E-03
       1.9488170E-02
       2.7077110E-02
       1.4859137E-02
       1.7089582E-02
       1.9575361E-02
       2.1925313E-02
       4.8750297E-03
       7.6651176E-03
       4.6316527E-03
       1.9648887E-03
       1.6985630E-03
       2.6867301E-03
       9.0233491E-03
       8.6190789E-03
       1.9438786E-03
       1.2871675E-02
       3.8067943E-03
       1.1715036E-02
       2.7542744E-03
       6.3743957E-04
       7.7474035E-03
       1.6116309E-02
       1.4890877E-02
       1.7182647E-02
       7.5054775E-03
       1.6942269E-02
       2.2215192E-02
       2.0965059E-02
       2.6190896E-02
       2.4644507E-02
       2.1698625E-02
       2.5407638E-02
       1.1700567E-02
       5.4905800E-03
       2.1435906E-02
       8.2099574E-03
       2.0459576E-02
       5.5427399E-03
       2.8008716E-02
       2.8145090E-02
       2.8998355E-02
       2.9439912E-02
       2.9933609E-02
       2.5469127E-02
       2.4370125E-02
       2.6803758E-02
       2.3593283E-02
       2.3753049E-02
       1.8795499E-02
       2.2332757E-02
       1.4957031E-02
       2.2276175E-02
       2.1065037E-02
       4.8230322E-03
       3.2716498E-03
       2.6815371E-03
       6.6199932E-03
       1.4014006E-02
       3.0286734E-03
       4.3888573E-03
       1.5845834E-02
       1.8981059E-02
       4.6505356E-03
       1.1799596E-02
       4.8525412E-03
       1.0120375E-02
       7.9538946E-03
       9.7821775E-03
       9.4807706E-03
       4.6273576E-03
       2.5652864E-03
       9.8055100E-05
       6.2954529E-03
       1.4645968E-03
       9.0509468E-03
       5.5501455E-03
       1.5246823E-02
       4.1182095E-04
       3.1478742E-03
       7.9929389E-03
       7.2162365E-03
       1.3316779E-02
       1.0193509E-02
       2.8536988E-03
       1.7673459E-02
       1.3415046E-03
       1.1444015E-02
       2.1134306E-02
       1.2037120E-03
       6.5266651E-04
       1.3227748E-02
       1.3469220E-02
       1.3862325E-02
       1.3655548E-02
       7.1139521E-03
       1.5954233E-02
       1.5089248E-02
       1.5180091E-02
       1.7279497E-02
       1.4431975E-02
       9.3926183E-03
       1.3019123E-02
       1.2555067E-02
       4.3801805E-04
       3.1782819E-03
       3.2948506E-03
       4.8159578E-03
       2.7167496E-03
       2.7835968E-03
       1.2321700E-03
       1.2008400E-03
       8.0033458E-04
       1.4334347E-02
       1.6635516E-02
       1.5565412E-02
       1.2401510E-02
       1.6903790E-02
       1.0395865E-02
       4.1645645E-03
       8.5101255E-03
       4.8023964E-03
       3.5135858E-03
       2.3478270E-03
       3.6047028E-03
       4.4460875E-03
       2.7590149E-02
       3.0848858E-02
       2.9245361E-02
       2.9940822E-02
       3.0869042E-02
       2.9604858E-02
       3.0492576E-02
       3.1555754E-02
       3.1188057E-02
       3.2292456E-02
       3.0775827E-02
       3.1814151E-02
       3.2929481E-02
       3.2300402E-02
       3.2072012E-02
       3.2138669E-02
       3.1261585E-02
       2.9952806E-02
       2.9446457E-02
       2.9412008E-02
       2.9319473E-02
       3.0289619E-02
       3.0923833E-02
       3.1022088E-02
       2.7711627E-02
       2.4823522E-02
       2.7911984E-02
       2.6471198E-02
       2.5039435E-02
       2.9733855E-02
       3.0967948E-02
       3.0633035E-02
       3.0182012E-02
       3.0080337E-02
       3.0764809E-02
       3.2227899E-02
       3.1593400E-02
       2.9797008E-02
       3.1452461E-02
       3.2113851E-02
       3.2308932E-02
       3.1596898E-02
       3.0321583E-02
       3.0729789E-02
       3.3704637E-02
       3.1543347E-02
       3.3480836E-02
       3.2949269E-02
       3.2899553E-02
       3.2975272E-02
       3.4064279E-02
       3.3469073E-02
       3.3341202E-02
       3.2874702E-02
       3.3405469E-02
       3.4564127E-02
       3.3933414E-02
       3.4301004E-02
       3.3471263E-02
       3.5402310E-02
       3.2957514E-02
       3.4670589E-02
       3.1907648E-02
       3.4046440E-02
       3.4938284E-02
       3.5748651E-02
       3.5539546E-02
       3.6607488E-02
       3.6052113E-02
       3.5398570E-02
       3.4401329E-02
       3.2687432E-02
       3.3458999E-02
       3.6112716E-02
       3.6342954E-02
       3.6443837E-02
       3.7365414E-02
       3.6975909E-02
       3.5168273E-02
       3.6820618E-02
       3.2035012E-02
       3.3332887E-02
       3.6833939E-02
       3.6827538E-02
       3.6050486E-02
       3.6693801E-02
       3.7139239E-02
       3.1030294E-02
       3.3265859E-02
       3.7836314E-02
       3.2580278E-02
       3.4521175E-02
       3.7410345E-02
       3.7669910E-02
       3.1126298E-02
       3.4015633E-02
       3.4645854E-02
       3.7239920E-02
       3.7661865E-02
       3.7607089E-02
       3.8560461E-02
       3.8189677E-02
       3.1820961E-02
       3.1030683E-02
       3.2200468E-02
       2.9171807E-02
       3.2298114E-02
       3.0160065E-02
       3.0246858E-02
       2.9986656E-02
       3.8314944E-02
       3.9273673E-02
       2.8955873E-02
       3.8040932E-02
       3.8665666E-02
       3.7941328E-02
       3.8838780E-02
       2.7947427E-02
       2.9452383E-02
       2.8619907E-02
       2.7221906E-02
       2.8143632E-02
       2.8331301E-02
       3.8426087E-02
       3.7927742E-02
       3.8885150E-02
       3.7957640E-02
       2.7156041E-02
       2.6243050E-02
       3.7618656E-02
       3.9351228E-02
       3.8560022E-02
       3.6755165E-02
       2.6511029E-02
       3.9065961E-02
       3.7331307E-02
       3.6652600E-02
       2.7657668E-02
       3.8498166E-02
       3.9169203E-02
       3.7689920E-02
       4.0147939E-02
       3.7803664E-02
       3.9765736E-02
       3.9701823E-02
       3.9739049E-02
       4.0059696E-02
       3.9739609E-02
       3.9304556E-02
       3.9221511E-02
       4.0567546E-02
       4.0152733E-02
       4.0715973E-02
       4.0237380E-02
       4.0486210E-02
       2.6985119E-02
       3.6010390E-03
       2.3454492E-03
       1.0499108E-03
       1.7273388E-03
       1.0975397E-03
       1.5770589E-03
       1.4351211E-03
       1.9977612E-03
       2.2358941E-03
       1.9323824E-03
       2.5871405E-03
       2.2879403E-04
       3.5168444E-04
       1.2340827E-03
       1.3792259E-03
       8.9462045E-04
       5.6374006E-04
       1.4490205E-03
       3.8999630E-04
       4.3263125E-04
       9.5502265E-04
       6.3955441E-04
       3.7793166E-04
       5.7638132E-04
       2.2973505E-04
       2.5250751E-02
       1.4138724E-02
       1.3009661E-02
       1.6087241E-02
       1.4589317E-02
       1.5078013E-02
       1.6997931E-02
       2.2730417E-02
       1.9988299E-02
       2.2052402E-02
       2.3352175E-02
       2.0586765E-02
       2.1699362E-02
       1.9064458E-02
       2.2220225E-02
       2.3763928E-02
       2.3158196E-02
       2.4846473E-02
       2.5915862E-02
       2.5006905E-02
       2.3303935E-02
       2.0823542E-02
       2.2062206E-02
       2.1475057E-02
       2.2116351E-02
       2.3695140E-02
       2.2616837E-02
       2.1572246E-02
       2.2636650E-02
       2.1862430E-02
       2.2789856E-02
       1.9636225E-02
       2.2626105E-02
       2.0516800E-02
       2.4135910E-02
       2.1605057E-02
       2.3641452E-02
       2.4837339E-02
       2.1309461E-02
       2.1595353E-02
       2.2885405E-02
       2.4787864E-02
       2.6080103E-02
       2.5227263E-02
       2.4242761E-02
       2.6859782E-02
       2.4893217E-02
       2.5618665E-02
       2.4984801E-02
       2.3909736E-02
       2.5949805E-02
       2.5772519E-02
       2.7486893E-02
       2.5765883E-02
       2.6692267E-02
       2.8635702E-02
       2.7718547E-02
       2.9122069E-02
       6.3635712E-03
       8.2302514E-03
       9.8979582E-03
       1.0833398E-02
       1.0604203E-02
       1.0503765E-02
       3.3876580E-03
       8.9167755E-04
       3.8823449E-03
       1.6889106E-03
       1.1721610E-02
       1.7402326E-02
       1.1064881E-02
       9.6053063E-03
       1.4647977E-02
       1.5238792E-02
       1.2981473E-02
       1.0350149E-02
       1.0814226E-02
       1.2251534E-02
       1.2779912E-02
       1.4928858E-02
       8.7568995E-03
       6.8920494E-03
       8.9459199E-03
       8.7330848E-03
       6.6132578E-03
       7.5240006E-03
       8.8428714E-03
       4.1301581E-03
       3.9707901E-03
       5.8144013E-03
       4.0731756E-03
       5.1900541E-03
       5.2982360E-03
       1.0043546E-02
       4.1254543E-03
       5.8483149E-03
       3.2752484E-03
       1.5561455E-03
       1.5747208E-03
       9.5606264E-04
       1.8021357E-02
       1.8971691E-02
       1.8723059E-02
       4.9526389E-03
       5.8624452E-03
       6.7112326E-03
       4.1476934E-03
       4.2877467E-03
       2.7588364E-03
       2.7939753E-02
       2.7163238E-02
       2.9003368E-02
       2.7155413E-02
       2.9176256E-02
       2.5404541E-02
       3.0388573E-02
       2.4931101E-02
       3.1505954E-02
       3.0179279E-02
       2.7111229E-02
       2.8427896E-02
       1.7124439E-02
       3.1059683E-02
       2.1956220E-02
       2.2284087E-02
       1.0834385E-02
       2.0918510E-02
       3.2189126E-02
       1.4405398E-02
       1.0633322E-02
       1.4489572E-02
       1.4056787E-02
       3.0686682E-02
       3.2155478E-02
       2.4190452E-02
       2.2728001E-02
       3.1345227E-02
       3.3709864E-02
       3.3934062E-02
       3.1279647E-02
       3.3885746E-02
       3.5861679E-02
       3.5247959E-02
       3.8274732E-02
       3.7080325E-02
       3.8979476E-02
       3.8425565E-02
       3.8981870E-02
       3.8339181E-02
       3.9003795E-02
       4.0069180E-02
       3.9536624E-02
       3.9569959E-02
       3.9638192E-02
       3.6765042E-02
       3.7415236E-02
       3.5865501E-02
       3.7159248E-02
       3.9607876E-02
       3.9784643E-02
       3.9068354E-02
       3.8846695E-02
       3.9184702E-02
       4.0390341E-02
       4.1457048E-02
       2.0912953E-03
       4.4239309E-04
       7.7746021E-04
       3.3258403E-04
       1.6953275E-02
       1.8172677E-02
       1.6098312E-02
       1.7822869E-02
       1.7604947E-02
       2.4850143E-02
       2.7596303E-02
       2.7036633E-02
       1.9212842E-02
       1.7921756E-02
       1.8615357E-02
       2.4375723E-02
       2.3531425E-02
       2.1337917E-02
       2.7269824E-02
       3.0226844E-02
       1.3967503E-03
       7.3002977E-04
       2.2016039E-03
       1.0409483E-03
       1.3641527E-03
       3.7762037E-03
       3.4161417E-04
       1.2473463E-03
       1.3288489E-04
       2.6072321E-04
       3.9045019E-04
       5.8523482E-04
       2.1613226E-04
       5.8486007E-04
       1.5746908E-04
       5.7926954E-03
       7.4454257E-03
       1.8135854E-03
       2.5233739E-03
       1.5335547E-02
       1.6407194E-02
       1.8403006E-02
       1.8720327E-02
       1.9100092E-02
       2.0355234E-02
       2.0692063E-02
       9.3282432E-03
       8.7503808E-03
       1.2710981E-02
       1.3795173E-02
       4.3005224E-03
       1.0757916E-02
       1.1980256E-02
       2.5101591E-03
       1.1047580E-02
       1.3727800E-02
       1.5423634E-02
       1.5397156E-02
       1.6605230E-02
       1.5055826E-02
       6.7787954E-04
       1.7015832E-02
       1.3074177E-02
       1.6608441E-02
       1.1977992E-02
       1.2274504E-02
       1.1575437E-02
       5.0653095E-03
       8.4504787E-03
       6.4044583E-03
       7.6400535E-03
       6.1242255E-03
       2.6794909E-03
       1.1277724E-03
       1.6130401E-02
       1.5213149E-02
       1.7606938E-02
       6.8183409E-03
       7.0294057E-03
       5.9383030E-03
       8.9537005E-03
       7.7248188E-03
       6.8492230E-03
       1.1076844E-02
       3.2819579E-03
       9.5202233E-04
       6.8738834E-04
       2.2261604E-02
       1.7508376E-02
       1.1494793E-02
       1.3788893E-02
       1.1121359E-02
       1.6062507E-02
       1.8628757E-02
       1.7647711E-02
       3.3010086E-02
       3.5139977E-02
       3.5259778E-02
       3.5447862E-02
       3.5455887E-02
       3.5956333E-02
       3.4641218E-02
       3.4420753E-02
       3.5131117E-02
       3.4394599E-02
       3.8289223E-02
       3.8212688E-02
       4.3138116E-02
       3.8022086E-02
       3.6545424E-02
       4.0732126E-02
       3.9995369E-02
       4.0791278E-02
       4.0010910E-02
       3.8682944E-02
       4.1827094E-02
       3.3821754E-02
       4.1449338E-02
       4.2537347E-02
       3.6777865E-02
       3.2831006E-02
       4.2549989E-02
       4.2211977E-02
       4.0399720E-02
       4.0703512E-02
       4.0919161E-02
       3.4058770E-02
       4.1771754E-02
       3.6931998E-02
       4.1333514E-02
       3.5638189E-02
       4.2185383E-02
       4.1155168E-02
       4.1764680E-02
       4.1438490E-02
       4.1927745E-02
       4.0516760E-02
       4.2480429E-02
       3.8617058E-02
       4.2197372E-02
       3.8188196E-02
       3.7392455E-02
       4.1982475E-02
       4.2508474E-02
       3.8814764E-02
       3.7346937E-02
       1.8540421E-02
       4.2924465E-02
       1.6272646E-02
       4.3298570E-02
       3.9080812E-02
       4.3091086E-02
       3.5442877E-02
       3.4333795E-02
       4.3157539E-02
       4.3541023E-02
       4.3526330E-02
       4.4084485E-02
       4.2875361E-02
       4.2770748E-02
       3.8206296E-02
       3.6345067E-02
       3.7827392E-02
       3.5854507E-02
       3.5245991E-02
       4.1193927E-02
       3.6719603E-02
       3.7802467E-02
       3.4843206E-02
       3.5459724E-02
       3.6921839E-02
       4.4678725E-02
       3.9335944E-02
       4.1995533E-02
       3.6412171E-02
       4.1733123E-02
       3.6891066E-02
       3.6270461E-02
       3.5240290E-02
       3.4383001E-02
       3.5750039E-02
       3.6227137E-02
       3.6383415E-02
       3.6002630E-02
       3.5495024E-02
       3.5930393E-02
       3.4995905E-02
       3.5861189E-02
       3.4269696E-02
       3.3948778E-02
       3.4609332E-02
       3.3901251E-02
       3.4614756E-02
       3.5259433E-02
       3.4775131E-02
       3.4004874E-02
       3.3273193E-02
       3.3082298E-02
       3.2946271E-02
       3.1885636E-02
       3.3585439E-02
       3.3925391E-02
       3.7410074E-02
       3.9563796E-02
       3.8655011E-02
       3.8958038E-02
       4.0137232E-02
       4.1109100E-02
       4.0850153E-02
       4.1107339E-02
       4.0874602E-02
       4.0421374E-02
       4.1245240E-02
       4.0741652E-02
       4.1786976E-02
       4.0743658E-02
       4.1688086E-02
       4.1370589E-02
       4.2098244E-02
       4.1082596E-02
       4.1130542E-02
       4.1102503E-02
       4.0204494E-02
       4.1519650E-02
       4.0706336E-02
       4.0431102E-02
       4.1339434E-02
       4.1408303E-02