# vtk DataFile Version 3.0
# Solution du M1 TR
ASCII
DATASET UNSTRUCTURED_GRID
POINTS   3280  float
0.0000000E+00  0.0000000E+00  0.1690883E-01
0.2000000E+01  0.0000000E+00  0.1960150E+01
0.2000000E+01  0.1000000E+01  0.1960193E+01
0.0000000E+00  0.1000000E+01  0.1693552E-01
0.1000000E+01  0.0000000E+00  0.9943261E+00
0.1000000E+01  0.1000000E+01  0.9939110E+00
0.1500000E+01  0.5000000E+00  0.1495937E+01
0.1500000E+01  0.0000000E+00  0.1473865E+01
0.1723284E+01  0.3570951E+00  0.1706229E+01
0.1500000E+01  0.2500000E+00  0.1494422E+01
0.1515103E+01  0.2763186E+00  0.1509249E+01
0.1594866E+01  0.2826386E+00  0.1584917E+01
0.1562500E+01  0.1875000E+00  0.1552651E+01
0.1534357E+01  0.1819434E+00  0.1525358E+01
0.1561083E+01  0.3343258E+00  0.1553304E+01
0.1750000E+01  0.0000000E+00  0.1715648E+01
0.1503267E+01  0.1622339E+00  0.1494849E+01
0.1514910E+01  0.2261192E+00  0.1508184E+01
0.1610795E+01  0.1290247E+00  0.1594377E+01
0.1539062E+01  0.1536458E+00  0.1528143E+01
0.1510772E+01  0.1982718E+00  0.1503405E+01
0.1541862E+01  0.2179813E+00  0.1533688E+01
0.1475030E+01  0.2178147E+00  0.1470150E+01
0.1539206E+01  0.2578835E+00  0.1531782E+01
0.1521085E+01  0.2465697E+00  0.1514323E+01
0.1496499E+01  0.2146241E+00  0.1490348E+01
0.1481433E+01  0.1870688E+00  0.1474930E+01
0.1586261E+01  0.1960616E+00  0.1575155E+01
0.1460896E+01  0.2899333E+00  0.1457978E+01
0.1542195E+01  0.2867649E+00  0.1534967E+01
0.1486080E+01  0.2754813E+00  0.1481643E+01
0.1536278E+01  0.3247610E+00  0.1529829E+01
0.1510131E+01  0.3295675E+00  0.1505144E+01
0.1455545E+01  0.2514402E+00  0.1452362E+01
0.1610995E+01  0.1909452E+00  0.1598831E+01
0.1564462E+01  0.2395252E+00  0.1555585E+01
0.1571524E+01  0.3026484E+00  0.1562884E+01
0.1613657E+01  0.2555806E+00  0.1602598E+01
0.1633998E+01  0.2714643E+00  0.1621835E+01
0.1534973E+01  0.3650914E+00  0.1528427E+01
0.1583157E+01  0.2286349E+00  0.1572991E+01
0.1586501E+01  0.1581416E+00  0.1573893E+01
0.1651985E+01  0.2274641E+00  0.1638633E+01
0.1619170E+01  0.2936434E+00  0.1607886E+01
0.1678889E+01  0.2641389E+00  0.1664296E+01
0.1642286E+01  0.2930521E+00  0.1629678E+01
0.1526415E+01  0.3446283E+00  0.1520447E+01
0.1662420E+01  0.3044259E+00  0.1648787E+01
0.1636786E+01  0.2469276E+00  0.1624463E+01
0.1588953E+01  0.3366240E+00  0.1579655E+01
0.1616427E+01  0.3314099E+00  0.1605549E+01
0.1598305E+01  0.3102698E+00  0.1588263E+01
0.1655410E+01  0.2614708E+00  0.1642038E+01
0.1487553E+01  0.3072167E+00  0.1483446E+01
0.1520126E+01  0.3036443E+00  0.1514315E+01
0.1477894E+01  0.2544664E+00  0.1473708E+01
0.1567847E+01  0.2133479E+00  0.1558099E+01
0.1663947E+01  0.3299725E+00  0.1650499E+01
0.1567022E+01  0.2696000E+00  0.1558452E+01
0.1678598E+01  0.3509559E+00  0.1664163E+01
0.1611933E+01  0.3827205E+00  0.1601142E+01
0.1640491E+01  0.3197373E+00  0.1628235E+01
0.1588015E+01  0.2526666E+00  0.1578149E+01
0.1708471E+01  0.3144917E+00  0.1692247E+01
0.1606944E+01  0.3564315E+00  0.1596554E+01
0.1604614E+01  0.2314093E+00  0.1593524E+01
0.1643491E+01  0.3631133E+00  0.1631089E+01
0.2000000E+01  0.5000000E+00  0.1960429E+01
0.1494727E+01  0.3621796E+00  0.1490388E+01
0.1701807E+01  0.3477237E+00  0.1685935E+01
0.1572156E+01  0.3701847E+00  0.1563735E+01
0.1688392E+01  0.3285111E+00  0.1673471E+01
0.1695932E+01  0.3904821E+00  0.1680395E+01
0.1636337E+01  0.3418163E+00  0.1624458E+01
0.1505941E+01  0.9448485E-01  0.1486789E+01
0.1423727E+01  0.1910920E+00  0.1420071E+01
0.1481447E+01  0.3359634E+00  0.1477958E+01
0.1441613E+01  0.3726133E+00  0.1440331E+01
0.1466699E+01  0.3599060E+00  0.1464016E+01
0.1476682E+01  0.4107296E+00  0.1473542E+01
0.1434448E+01  0.3273535E+00  0.1433477E+01
0.1464523E+01  0.3867258E+00  0.1462126E+01
0.1456903E+01  0.3373583E+00  0.1454822E+01
0.1454188E+01  0.3132491E+00  0.1451883E+01
0.1424069E+01  0.2919612E+00  0.1422936E+01
0.1490969E+01  0.3884111E+00  0.1487031E+01
0.1428051E+01  0.4202828E+00  0.1427766E+01
0.1513790E+01  0.3782958E+00  0.1508447E+01
0.1547789E+01  0.4092466E+00  0.1540736E+01
0.1535154E+01  0.3889763E+00  0.1528678E+01
0.1512699E+01  0.4170463E+00  0.1507684E+01
0.1441554E+01  0.3983607E+00  0.1440474E+01
0.1395941E+01  0.3853832E+00  0.1397486E+01
0.1420578E+01  0.3854393E+00  0.1420594E+01
0.1408336E+01  0.3518173E+00  0.1408894E+01
0.1549967E+01  0.3074339E+00  0.1542648E+01
0.1651639E+01  0.4114272E+00  0.1638825E+01
0.1668616E+01  0.3788978E+00  0.1654742E+01
0.1674624E+01  0.4027285E+00  0.1660556E+01
0.1706988E+01  0.4343785E+00  0.1691092E+01
0.1673984E+01  0.4357547E+00  0.1659909E+01
0.1695270E+01  0.4139894E+00  0.1680023E+01
0.1737273E+01  0.4034108E+00  0.1719326E+01
0.1645630E+01  0.3875965E+00  0.1633215E+01
0.1625874E+01  0.4052508E+00  0.1614467E+01
0.1627808E+01  0.4540126E+00  0.1616604E+01
0.1587158E+01  0.4136289E+00  0.1577897E+01
0.1633718E+01  0.4293591E+00  0.1622115E+01
0.1651607E+01  0.4466828E+00  0.1638969E+01
0.1605650E+01  0.4356658E+00  0.1595515E+01
0.1682168E+01  0.4808869E+00  0.1667727E+01
0.1671711E+01  0.4594749E+00  0.1658027E+01
0.1698428E+01  0.4596870E+00  0.1683247E+01
0.1646221E+01  0.4851828E+00  0.1633872E+01
0.1607747E+01  0.4151289E+00  0.1597367E+01
0.1584205E+01  0.4841185E+00  0.1575245E+01
0.1747573E+01  0.4622079E+00  0.1729369E+01
0.1568396E+01  0.4481495E+00  0.1560234E+01
0.1601760E+01  0.4629165E+00  0.1592045E+01
0.1723356E+01  0.4540167E+00  0.1706594E+01
0.1732897E+01  0.4294241E+00  0.1715270E+01
0.1722218E+01  0.4972746E+00  0.1705707E+01
0.1715121E+01  0.4754441E+00  0.1698964E+01
0.1584567E+01  0.4345797E+00  0.1575610E+01
0.1563465E+01  0.4258523E+00  0.1555717E+01
0.1534166E+01  0.4440258E+00  0.1527894E+01
0.1615090E+01  0.4918227E+00  0.1604548E+01
0.1717469E+01  0.4134541E+00  0.1700813E+01
0.1718488E+01  0.3909170E+00  0.1701539E+01
0.1741353E+01  0.3769080E+00  0.1723054E+01
0.1781199E+01  0.4241746E+00  0.1760284E+01
0.2000000E+01  0.2500000E+00  0.1960304E+01
0.1756308E+01  0.4199875E+00  0.1737253E+01
0.1762447E+01  0.3937207E+00  0.1742841E+01
0.1765097E+01  0.4438197E+00  0.1745542E+01
0.1807974E+01  0.4625425E+00  0.1784426E+01
0.1789176E+01  0.4471344E+00  0.1767640E+01
0.1514158E+01  0.1287364E+00  0.1501955E+01
0.1777674E+01  0.4803377E+00  0.1757458E+01
0.1811145E+01  0.4395021E+00  0.1787827E+01
0.1850404E+01  0.4566449E+00  0.1822062E+01
0.1748483E+01  0.3522599E+00  0.1729663E+01
0.1731235E+01  0.3304535E+00  0.1713651E+01
0.1777870E+01  0.3654441E+00  0.1757252E+01
0.1748149E+01  0.2821176E+00  0.1729401E+01
0.1732875E+01  0.3039003E+00  0.1715141E+01
0.1708314E+01  0.2807181E+00  0.1692181E+01
0.1767650E+01  0.3193756E+00  0.1747668E+01
0.1372661E+01  0.1704076E+00  0.1370053E+01
0.1411157E+01  0.2494459E+00  0.1410276E+01
0.1448000E+01  0.2246098E+00  0.1444598E+01
0.1360382E+01  0.2278583E+00  0.1361501E+01
0.1433680E+01  0.2431125E+00  0.1431568E+01
0.1388814E+01  0.2314916E+00  0.1388550E+01
0.1314549E+01  0.2124991E+00  0.1317765E+01
0.1404157E+01  0.2007613E+00  0.1402256E+01
0.1415035E+01  0.1072182E+00  0.1404247E+01
0.1520299E+01  0.1091515E+00  0.1504751E+01
0.1459010E+01  0.1690672E+00  0.1452721E+01
0.1436337E+01  0.2690050E+00  0.1434373E+01
0.1443480E+01  0.1263360E+00  0.1434437E+01
0.1625000E+01  0.0000000E+00  0.1594308E+01
0.1414954E+01  0.2197329E+00  0.1412982E+01
0.1335299E+01  0.2266424E+00  0.1337651E+01
0.1396801E+01  0.1612344E+00  0.1392305E+01
0.1792033E+01  0.3934232E+00  0.1770343E+01
0.1541310E+01  0.1264947E+00  0.1527883E+01
0.1483859E+01  0.1256971E+00  0.1471997E+01
0.1500341E+01  0.1139400E+00  0.1486455E+01
0.1498380E+01  0.1421255E+00  0.1487786E+01
0.1478242E+01  0.1468909E+00  0.1469394E+01
0.1453147E+01  0.1972183E+00  0.1448510E+01
0.1348833E+01  0.2067866E+00  0.1349928E+01
0.1368157E+01  0.2800764E+00  0.1369962E+01
0.1250000E+01  0.0000000E+00  0.1233808E+01
0.1496272E+01  0.2780308E-01  0.1471294E+01
0.1430228E+01  0.1622338E+00  0.1424266E+01
0.1544491E+01  0.1012427E+00  0.1526361E+01
0.1505524E+01  0.5428530E-01  0.1482550E+01
0.1576405E+01  0.1180891E+00  0.1559991E+01
0.1526885E+01  0.8834234E-01  0.1506034E+01
0.1558557E+01  0.6358195E-01  0.1534791E+01
0.1372206E+01  0.9428859E-01  0.1359809E+01
0.1414069E+01  0.8636887E-01  0.1399265E+01
0.1351230E+01  0.1581055E+00  0.1348911E+01
0.1371634E+01  0.2528708E+00  0.1372902E+01
0.1392978E+01  0.2694234E+00  0.1393298E+01
0.1321668E+01  0.2603105E+00  0.1325849E+01
0.1392566E+01  0.3027057E+00  0.1393405E+01
0.1345601E+01  0.2495441E+00  0.1348161E+01
0.1349996E+01  0.1827855E+00  0.1349643E+01
0.1475238E+01  0.9618066E-01  0.1458504E+01
0.1487372E+01  0.4556180E+00  0.1483836E+01
0.1432024E+01  0.3509343E+00  0.1431169E+01
0.1619231E+01  0.5383449E+00  0.1608292E+01
0.1532505E+01  0.4233173E+00  0.1526353E+01
0.1547332E+01  0.4788657E+00  0.1540414E+01
0.1627786E+01  0.4750493E+00  0.1616375E+01
0.1750658E+01  0.4911384E+00  0.1732457E+01
0.1783313E+01  0.5336292E+00  0.1762607E+01
0.1744147E+01  0.5299352E+00  0.1726246E+01
0.1772978E+01  0.5077787E+00  0.1753077E+01
0.1739682E+01  0.5092411E+00  0.1722047E+01
0.1715917E+01  0.5251974E+00  0.1699702E+01
0.1809547E+01  0.4999146E+00  0.1785818E+01
0.1486188E+01  0.5335558E+00  0.1482430E+01
0.1695320E+01  0.5058771E+00  0.1680404E+01
0.1793562E+01  0.5145404E+00  0.1771674E+01
0.1827482E+01  0.5355643E+00  0.1801684E+01
0.1805457E+01  0.5332234E+00  0.1782467E+01
0.1812320E+01  0.5734372E+00  0.1788992E+01
0.1794794E+01  0.5557356E+00  0.1773167E+01
0.1637325E+01  0.5533192E+00  0.1625496E+01
0.1761146E+01  0.5591762E+00  0.1742217E+01
0.1789115E+01  0.5788851E+00  0.1767829E+01
0.1693317E+01  0.6123782E+00  0.1678479E+01
0.1522396E+01  0.5359490E+00  0.1516693E+01
0.1814654E+01  0.6254783E+00  0.1790662E+01
0.1726166E+01  0.5505978E+00  0.1709323E+01
0.1691322E+01  0.5307786E+00  0.1676703E+01
0.1516987E+01  0.5143680E+00  0.1511763E+01
0.1661909E+01  0.5147686E+00  0.1648747E+01
0.1761865E+01  0.6508066E+00  0.1742501E+01
0.1692174E+01  0.5698207E+00  0.1677501E+01
0.1780214E+01  0.6037461E+00  0.1759856E+01
[...]
POINT_DATA    3280
SCALARS hauteur float
LOOKUP_TABLE DEFAULT
       1.6908826E-02
       1.6633131E-05
       6.0057309E-05
       1.6935519E-02
       1.4259484E-02
       1.3844413E-02
       2.5837210E-02
       3.7649085E-03
       1.7296119E-02
       2.4321848E-02
       2.4347086E-02
       2.1842583E-02
       2.1296735E-02
       2.1585906E-02
       2.3338630E-02
       5.3116796E-04
       2.1547323E-02
       2.3471411E-02
       1.5689823E-02
       1.9759435E-02
       2.2748253E-02
       2.2561257E-02
       2.4522303E-02
       2.3258098E-02
       2.3558540E-02
       2.3678735E-02
       2.3027708E-02
       2.0513159E-02
       2.6202974E-02
       2.3513772E-02
       2.5185529E-02
       2.4174758E-02
       2.5115128E-02
       2.5830831E-02
       1.9948495E-02
       2.2307517E-02
       2.2686672E-02
       2.1106623E-02
       2.0408463E-02
       2.4050768E-02
       2.1391626E-02
       1.9015920E-02
       1.9577601E-02
       2.0991425E-02
       1.8872536E-02
       2.0127685E-02
       2.4459035E-02
       1.9505097E-02
       2.0303349E-02
       2.2374967E-02
       2.1342876E-02
       2.1818117E-02
       1.9625781E-02
       2.5545101E-02
       2.4490148E-02
       2.5273853E-02
       2.1504764E-02
       1.9720202E-02
       2.2665271E-02
       1.9024371E-02
       2.1340285E-02
       2.0444911E-02
       2.1788686E-02
       1.7832005E-02
       2.1641869E-02
       2.0895546E-02
       2.0358233E-02
       2.9552716E-04
       2.5456239E-02
       1.8050750E-02
       2.2917412E-02
       1.8734653E-02
       1.8268230E-02
       2.0738362E-02
       1.0866685E-02
       2.4723421E-02
       2.6040720E-02
       2.7454020E-02
       2.6553363E-02
       2.6294585E-02
       2.7622402E-02
       2.6796019E-02
       2.6959727E-02
       2.6681422E-02
       2.7253830E-02
       2.5781987E-02
       2.8181049E-02
       2.4832583E-02
       2.3799247E-02
       2.4124256E-02
       2.5138559E-02
       2.7654723E-02
       2.9371163E-02
       2.8333424E-02
       2.8630825E-02
       2.3577387E-02
       2.0109294E-02
       1.9387626E-02
       1.9312907E-02
       1.8130315E-02
       1.9292776E-02
       1.8545771E-02
       1.6683138E-02
       2.0387551E-02
       2.1002262E-02
       2.1243780E-02
       2.2375911E-02
       2.0962597E-02
       2.0283836E-02
       2.1871606E-02
       1.9090467E-02
       1.9639038E-02
       1.8675380E-02
       2.0465792E-02
       2.1668003E-02
       2.2618619E-02
       1.6631063E-02
       2.3101473E-02
       2.2213152E-02
       1.7590845E-02
       1.6915825E-02
       1.7818520E-02
       1.8031954E-02
       2.2628054E-02
       2.3416788E-02
       2.4309878E-02
       2.1652528E-02
       1.7579745E-02
       1.7305485E-02
       1.6412379E-02
       1.4590274E-02
       1.7103632E-04
       1.5954133E-02
       1.5525521E-02
       1.5629308E-02
       1.2491836E-02
       1.4128303E-02
       1.7978673E-02
       1.5219096E-02
       1.2783956E-02
       8.5433579E-03
       1.6033164E-02
       1.6925056E-02
       1.4821271E-02
       1.6098975E-02
       1.6807769E-02
       1.7919815E-02
       1.5253912E-02
       2.4753283E-02
       2.7248903E-02
       2.5461130E-02
       2.8236012E-02
       2.6465789E-02
       2.7420263E-02
       2.9419467E-02
       2.6088409E-02
       1.7418069E-02
       1.4756402E-02
       2.2794203E-02
       2.6667769E-02
       1.9731178E-02
       1.7001604E-03
       2.6233104E-02
       2.8968791E-02
       2.3346214E-02
       1.4031588E-02
       1.7296566E-02
       1.7716394E-02
       1.6021588E-02
       1.9273980E-02
       2.0618023E-02
       2.4328946E-02
       2.7981930E-02
       2.9076914E-02
       8.7243473E-03
       4.8478432E-03
       2.2546748E-02
       1.2657160E-02
       7.0367612E-03
       1.5009678E-02
       9.5854180E-03
       7.3014435E-03
       1.4955599E-02
       1.3383665E-02
       2.4615709E-02
       2.8609468E-02
       2.8086436E-02
       3.0527220E-02
       2.8597590E-02
       2.9381773E-02
       2.6557271E-02
       1.2672747E-02
       2.6112978E-02
       2.7689634E-02
       2.1338129E-02
       2.4396394E-02
       2.3925600E-02
       2.1036233E-02
       1.6695227E-02
       1.4842356E-02
       1.6865654E-02
       1.5440506E-02
       1.7042589E-02
       1.7989024E-02
       1.2341905E-02
       2.5866794E-02
       1.8877725E-02
       1.3864301E-02
       1.0630382E-02
       1.2998683E-02
       1.2797569E-02
       1.4149202E-02
       2.0808777E-02
       1.6176523E-02
       1.4377196E-02
       1.8916255E-02
       2.4643451E-02
       1.2180273E-02
       1.7565040E-02
       1.9095305E-02
       2.5014697E-02
       1.9965962E-02
       1.5755444E-02
       1.9058224E-02
       1.5127647E-02
       2.3221803E-02
       1.9834525E-02
       1.6593099E-02
       2.2567967E-02
       1.9039873E-02
       1.7135244E-02
       1.6611813E-02
       1.7481216E-02
       1.7123038E-02
       1.0764185E-02
       1.1650738E-02
       2.4218604E-04
       1.5095007E-02
       7.3516380E-03
       1.4495963E-02
       1.5996303E-02
       1.8688636E-02
       1.6939386E-02
       1.3078573E-02
       1.0323404E-02
       1.0579632E-02
       1.2208326E-02
       1.3126743E-02
       1.3190845E-02
       1.4798996E-02
       1.9816870E-02
       2.6832300E-02
       1.6773775E-02
       1.8213160E-02
       2.0142015E-02
       2.2017329E-02
       7.4991182E-03
       1.0100276E-02
       6.8819714E-03
       2.9825664E-03
       3.2210325E-03
       4.1872312E-03
       1.1715532E-02
       1.2146516E-02
       4.0372917E-03
       1.6265896E-02
       6.6842940E-03
       1.5072163E-02
       4.8840547E-03
       1.1903173E-03
       1.1883357E-02
       1.8448347E-02
       1.7379607E-02
       1.8841627E-02
       8.9350635E-03
       1.7445266E-02
       2.2487031E-02
       2.0883419E-02
       2.6675351E-02
       2.4936053E-02
       2.2362116E-02
       2.5047817E-02
       1.2457034E-02
       6.1205254E-03
       2.1398733E-02
       9.3141330E-03
       2.0608112E-02
       6.8817140E-03
       2.7831382E-02
       2.8137388E-02
       2.9158499E-02
       2.9768688E-02
       3.0340807E-02
       2.5886592E-02
       2.5077318E-02
       2.7026257E-02
       2.4639085E-02
       2.4750243E-02
       2.2172335E-02
       2.3957740E-02
       2.0615386E-02
       2.3805165E-02
       2.3188267E-02
       1.3564201E-02
       1.1136302E-02
       9.5383195E-03
       1.5966000E-02
       1.9820750E-02
       9.7457178E-03
       1.3187733E-02
       2.0836087E-02
       2.2341084E-02
       1.1604791E-02
       1.8132116E-02
       1.2640960E-02
       1.7545004E-02
       1.5691539E-02
       1.6437808E-02
       1.6853075E-02
       1.2876760E-02
       7.6376378E-03
       1.6610149E-04
       1.3959928E-02
       4.4869907E-03
       1.5510858E-02
       1.4446640E-02
       1.9870348E-02
       4.1951244E-04
       1.0672850E-02
       1.5184548E-02
       1.3954142E-02
       1.8587578E-02
       1.8074697E-02
       3.4263330E-03
       2.1667644E-02
       4.0017926E-03
       1.6311791E-02
       2.3380920E-02
       3.4692149E-03
       1.4556743E-03
       1.8154374E-02
       1.7681315E-02
       1.9131934E-02
       1.9255545E-02
       1.2652477E-02
       1.9116048E-02
       1.7976333E-02
       1.8974085E-02
       2.0138500E-02
       1.7842046E-02
       1.4753935E-02
       1.6596095E-02
       1.7777671E-02
       1.0378586E-03
       1.0580717E-02
       9.9997077E-03
       1.2478735E-02
       4.6187860E-03
       4.1109462E-03
       1.9674248E-03
       2.2194975E-03
       1.4973839E-03
       1.8087646E-02
       1.9249693E-02
       1.6103957E-02
       1.3315021E-02
       1.7345773E-02
       1.1149890E-02
       4.9469310E-03
       9.4263302E-03
       5.4683099E-03
       4.3873408E-03
       3.3897085E-03
       4.9805682E-03
       6.2554734E-03
       2.7264655E-02
       3.1490952E-02
       2.9376961E-02
       3.0323128E-02
       3.1678532E-02
       2.9863838E-02
       3.1165489E-02
       3.2941766E-02
       3.2231524E-02
       3.3892029E-02
       3.1768449E-02
       3.3203213E-02
       3.5181695E-02
       3.4064098E-02
       3.4076405E-02
       3.3980209E-02
       3.2705619E-02
       3.0666801E-02
       2.9836239E-02
       3.0630530E-02
       3.0112808E-02
       3.1376107E-02
       3.2850187E-02
       3.2615707E-02
       2.8491867E-02
       2.6019338E-02
       2.8366682E-02
       2.6665894E-02
       2.5856588E-02
       3.0102607E-02
       3.1793084E-02
       3.1326791E-02
       3.0704783E-02
       3.0566878E-02
       3.1479921E-02
       3.3443695E-02
       3.2670065E-02
       3.0090135E-02
       3.2307105E-02
       3.3049549E-02
       3.3771735E-02
       3.2741161E-02
       3.0795251E-02
       3.1171012E-02
       3.5801121E-02
       3.2706956E-02
       3.5755628E-02
       3.4653414E-02
       3.4769143E-02
       3.5070740E-02
       3.7084463E-02
       3.6092835E-02
       3.6101610E-02
       3.4331378E-02
       3.5509222E-02
       3.7581969E-02
       3.6463831E-02
       3.7303987E-02
       3.4563529E-02
       3.9445189E-02
       3.4125377E-02
       3.8203044E-02
       3.2205087E-02
       3.6055591E-02
       3.8409481E-02
       3.9501061E-02
       3.9403154E-02
       4.1341383E-02
       4.0512950E-02
       3.9995384E-02
       3.8042214E-02
       3.3416205E-02
       3.5094501E-02
       4.0340430E-02
       4.0299438E-02
       4.0718079E-02
       4.2447947E-02
       4.1841719E-02
       3.9336331E-02
       4.2177540E-02
       3.2658821E-02
       3.3973940E-02
       4.1310400E-02
       4.0896299E-02
       4.0792991E-02
       4.1751975E-02
       4.2417941E-02
       3.1163010E-02
       3.4067833E-02
       4.3609573E-02
       3.2945292E-02
       3.6126669E-02
       4.2817770E-02
       4.3529533E-02
       3.0941209E-02
       3.5334059E-02
       3.6625253E-02
       4.2854251E-02
       4.3984845E-02
       4.3710783E-02
       4.5279944E-02
       4.4873058E-02
       3.1869129E-02
       3.1016343E-02
       3.2210404E-02
       2.9034846E-02
       3.2405588E-02
       3.0068721E-02
       3.0395570E-02
       2.9703091E-02
       4.4627644E-02
       4.6687097E-02
       2.9093692E-02
       4.4387570E-02
       4.5060614E-02
       4.4849246E-02
       4.5926050E-02
       2.8056056E-02
       2.9444956E-02
       2.8650288E-02
       2.7331789E-02
       2.8115469E-02
       2.8058082E-02
       4.4665568E-02
       4.3588175E-02
       4.5594150E-02
       4.4648487E-02
       2.7331551E-02
       2.6569511E-02
       4.2786526E-02
       4.6679632E-02
       4.5676849E-02
       4.2842975E-02
       2.6695801E-02
       4.6611049E-02
       4.3576175E-02
       4.2386387E-02
       2.7582212E-02
       4.5763836E-02
       4.6656627E-02
       4.4782507E-02
       4.7987642E-02
       4.4811131E-02
       4.7515437E-02
       4.7362559E-02
       4.7363201E-02
       4.7648988E-02
       4.7260106E-02
       4.6435076E-02
       4.6116121E-02
       4.8503936E-02
       4.7980821E-02
       4.8697947E-02
       4.7992110E-02
       4.8288782E-02
       2.7180302E-02
       1.2021688E-02
       8.5381378E-03
       3.2056279E-03
       6.1827830E-03
       3.5767516E-03
       5.3594407E-03
       5.0048830E-03
       7.0075043E-03
       7.6103374E-03
       6.5723676E-03
       8.5026490E-03
       1.0961499E-04
       4.6482248E-04
       4.1104135E-03
       4.6581232E-03
       2.7734373E-03
       1.3172839E-03
       4.9499889E-03
       7.7290572E-04
       7.3146275E-04
       3.1019680E-03
       1.6880331E-03
       8.7729505E-04
       1.6095574E-03
       1.5108731E-04
       2.5595935E-02
       2.0161867E-02
       1.9433376E-02
       2.0996328E-02
       1.9946902E-02
       2.0365205E-02
       2.1125545E-02
       2.4240119E-02
       2.2789364E-02
       2.3588094E-02
       2.4358971E-02
       2.2943679E-02
       2.3533579E-02
       2.2147181E-02
       2.3680842E-02
       2.4562747E-02
       2.4201482E-02
       2.5346460E-02
       2.6139343E-02
       2.5405654E-02
       2.4276832E-02
       2.2856317E-02
       2.3579624E-02
       2.2986209E-02
       2.3552788E-02
       2.4547206E-02
       2.3799101E-02
       2.2911155E-02
       2.3753888E-02
       2.3209537E-02
       2.3677238E-02
       2.1712737E-02
       2.3642119E-02
       2.1755128E-02
       2.4923479E-02
       2.2759424E-02
       2.4498498E-02
       2.5410719E-02
       2.2142781E-02
       2.2551892E-02
       2.3698103E-02
       2.5253126E-02
       2.6659099E-02
       2.5832718E-02
       2.5032366E-02
       2.7043552E-02
       2.5645914E-02
       2.6396004E-02
       2.5735709E-02
       2.4688428E-02
       2.6366840E-02
       2.6063090E-02
       2.7192277E-02
       2.5953942E-02
       2.6692930E-02
       2.8507656E-02
       2.7556005E-02
       2.8679245E-02
       1.5670234E-02
       1.7114017E-02
       1.8083377E-02
       1.8574316E-02
       1.7995003E-02
       1.6242599E-02
       9.9920208E-03
       2.6176555E-03
       9.7868645E-03
       5.6954944E-03
       1.8382632E-02
       2.0584906E-02
       1.5613611E-02
       1.4602855E-02
       1.8722524E-02
       1.8801764E-02
       1.7724518E-02
       1.6055765E-02
       1.6592402E-02
       1.7055674E-02
       1.6785365E-02
       1.7969667E-02
       1.3893821E-02
       1.4198689E-02
       1.5698707E-02
       1.5328549E-02
       1.3020253E-02
       1.4285254E-02
       1.4883867E-02
       1.1251849E-02
       9.2776553E-03
       1.3010407E-02
       1.1756392E-02
       1.2917717E-02
       1.3292243E-02
       1.6495797E-02
       1.1379343E-02
       1.3347027E-02
       4.9496566E-03
       2.5548090E-03
       3.1434836E-03
       1.9636141E-03
       2.0181181E-02
       1.9355175E-02
       1.9248643E-02
       5.8176697E-03
       6.9526255E-03
       7.5656541E-03
       5.1075849E-03
       5.4097780E-03
       3.8362358E-03
       2.8108386E-02
       2.8293953E-02
       3.0964847E-02
       2.8676480E-02
       3.0737324E-02
       2.7440168E-02
       3.2477737E-02
       2.6503164E-02
       3.4099331E-02
       3.2648267E-02
       2.8993456E-02
       3.0960850E-02
       1.8668244E-02
       3.4293427E-02
       2.3268819E-02
       2.3932293E-02
       1.1890079E-02
       2.2822388E-02
       3.4745203E-02
       1.5847077E-02
       1.1354802E-02
       1.5689550E-02
       1.5120130E-02
       3.3533087E-02
       3.5400621E-02
       2.4726391E-02
       2.3167036E-02
       3.1976323E-02
       3.6293470E-02
       3.7078240E-02
       3.1635835E-02
       3.5444719E-02
       3.8803971E-02
       3.8204562E-02
       4.4100966E-02
       4.1627579E-02
       4.5972702E-02
       4.5753180E-02
       4.6505280E-02
       4.5695052E-02
       4.6572680E-02
       4.7892249E-02
       4.7246119E-02
       4.7319513E-02
       4.7214357E-02
       4.3551111E-02
       4.4471271E-02
       4.2168913E-02
       4.3736282E-02
       4.6871895E-02
       4.7090802E-02
       4.5847600E-02
       4.5317147E-02
       4.5998907E-02
       4.8302588E-02
       4.9483856E-02
       7.4416738E-03
       5.9345910E-04
       2.1261624E-03
       1.9761588E-04
       2.1399650E-02
       2.1951274E-02
       2.0416558E-02
       2.1147469E-02
       2.1570823E-02
       2.5440091E-02
       2.7315241E-02
       2.6961437E-02
       2.2059170E-02
       2.1288133E-02
       2.0469932E-02
       2.4932992E-02
       2.4410761E-02
       2.2030851E-02
       2.7010204E-02
       2.9756637E-02
       4.2396213E-03
       2.0128541E-03
       6.2429410E-03
       2.7591286E-03
       3.8206738E-03
       9.1728355E-03
       7.0625362E-04
       3.5729308E-03
       2.5686938E-04
       6.4687553E-04
       5.2131071E-04
       9.1534393E-04
       5.4866772E-04
       1.6374750E-03
       1.5674130E-04
       1.2284167E-02
       1.3508055E-02
       5.8650287E-03
       8.7010897E-03
       1.9594088E-02
       1.9835651E-02
       2.1021581E-02
       2.0935647E-02
       2.1640231E-02
       2.2248674E-02
       2.2602889E-02
       1.4281483E-02
       1.4062986E-02
       1.6768795E-02
       1.6529639E-02
       9.6141338E-03
       1.4668965E-02
       1.5633857E-02
       6.5821119E-03
       1.5347757E-02
       1.6734301E-02
       1.7877011E-02
       1.7360182E-02
       1.8941448E-02
       1.7334265E-02
       8.8476307E-04
       1.8834159E-02
       1.5692142E-02
       1.8684178E-02
       1.5044381E-02
       1.4812658E-02
       1.4950275E-02
       9.4268877E-03
       1.2835613E-02
       1.1697969E-02
       1.1554854E-02
       1.1272362E-02
       6.0948911E-03
       1.5039161E-03
       1.7603818E-02
       1.6998223E-02
       1.9002553E-02
       1.4335731E-02
       1.4619010E-02
       1.3795608E-02
       1.5843026E-02
       1.5113554E-02
       1.4414738E-02
       1.7054145E-02
       1.0158024E-02
       1.7828479E-03
       1.5303259E-03
       2.3218789E-02
       1.8586580E-02
       1.2259427E-02
       1.4749744E-02
       1.1969755E-02
       1.6884515E-02
       1.9524482E-02
       1.8991190E-02
       3.6049332E-02
       3.7379554E-02
       3.7497333E-02
       3.8203596E-02
       3.7903665E-02
       3.8935384E-02
       3.6959246E-02
       3.6919110E-02
       3.8275849E-02
       3.7094017E-02
       4.4257349E-02
       4.5490340E-02
       4.9827117E-02
       4.2488437E-02
       4.3318935E-02
       4.7982698E-02
       4.7450000E-02
       4.8263549E-02
       4.7286079E-02
       4.5946344E-02
       4.8876466E-02
       3.9697686E-02
       4.8877656E-02
       4.9402630E-02
       4.3473114E-02
       3.7226678E-02
       4.9753750E-02
       4.9710739E-02
       4.8163566E-02
       4.8628533E-02
       4.8720497E-02
       3.8836151E-02
       4.9723382E-02
       4.3803326E-02
       4.9269380E-02
       4.2165497E-02
       4.9264287E-02
       4.9161558E-02
       4.9369538E-02
       4.9225647E-02
       4.9702783E-02
       4.8133724E-02
       5.0220851E-02
       4.5710289E-02
       5.0014780E-02
       4.5041245E-02
       4.4397371E-02
       4.9953752E-02
       5.0041509E-02
       4.6194662E-02
       4.4063224E-02
       1.6990988E-02
       5.0014196E-02
       1.7403279E-02
       5.0251823E-02
       4.6073686E-02
       5.0495288E-02
       4.1913328E-02
       4.0511368E-02
       5.0419444E-02
       5.0683019E-02
       5.0597272E-02
       5.0722146E-02
       5.0153275E-02
       5.0284201E-02
       4.4728475E-02
       4.3051019E-02
       4.4785885E-02
       4.2371870E-02
       4.1475196E-02
       4.8840949E-02
       4.2728684E-02
       4.4855980E-02
       4.1093392E-02
       4.1117783E-02
       4.3293425E-02
       5.0787481E-02
       4.6644595E-02
       4.9367921E-02
       4.2757287E-02
       4.8999440E-02
       4.3593663E-02
       4.2874034E-02
       4.1484998E-02
       4.0040751E-02
       4.1760851E-02
       4.1826011E-02
       4.2473771E-02
       4.1681528E-02
       4.0620312E-02
       4.1098054E-02
       4.0210300E-02
       4.0715358E-02
       3.9439031E-02
       3.8246278E-02
       3.9324262E-02
       3.8604112E-02
       3.8959456E-02
       3.9957881E-02
       3.8907736E-02
       3.7663278E-02
       3.6735738E-02
       3.6853872E-02
       3.7063508E-02
       3.5843813E-02
       3.6736840E-02
       3.7851161E-02
       4.3919094E-02
       4.6731689E-02
       4.4895650E-02
       4.5901491E-02
       4.8007040E-02
       4.9119695E-02
       4.8829609E-02
       4.9057713E-02
       4.8812128E-02
       4.8166087E-02
       4.9260656E-02
       4.8594004E-02
       4.9771290E-02
       4.8567545E-02
       4.9716085E-02
       4.9383249E-02
       5.0038947E-02
       4.8999588E-02
       4.8987831E-02
       4.9000792E-02
       4.7930665E-02
       4.9417610E-02
       4.8526596E-02
       4.8114059E-02
       4.9347285E-02
       4.9386769E-02