# vtk DataFile Version 3.0
# Solution du M1 TR
ASCII
DATASET UNSTRUCTURED_GRID
POINTS   3280  float
0.0000000E+00  0.0000000E+00  0.2361609E-01
0.2000000E+01  0.0000000E+00  0.1960300E+01
0.2000000E+01  0.1000000E+01  0.1960444E+01
0.0000000E+00  0.1000000E+01  0.2365897E-01
0.1000000E+01  0.0000000E+00  0.9928283E+00
0.1000000E+01  0.1000000E+01  0.9919198E+00
0.1500000E+01  0.5000000E+00  0.1494163E+01
0.1500000E+01  0.0000000E+00  0.1472579E+01
0.1723284E+01  0.3570951E+00  0.1699049E+01
0.1500000E+01  0.2500000E+00  0.1494124E+01
0.1515103E+01  0.2763186E+00  0.1508421E+01
0.1594866E+01  0.2826386E+00  0.1582305E+01
0.1562500E+01  0.1875000E+00  0.1551398E+01
0.1534357E+01  0.1819434E+00  0.1524518E+01
0.1561083E+01  0.3343258E+00  0.1551324E+01
0.1750000E+01  0.0000000E+00  0.1715427E+01
0.1503267E+01  0.1622339E+00  0.1494268E+01
0.1514910E+01  0.2261192E+00  0.1507748E+01
0.1610795E+01  0.1290247E+00  0.1590407E+01
0.1539062E+01  0.1536458E+00  0.1526675E+01
0.1510772E+01  0.1982718E+00  0.1502990E+01
0.1541862E+01  0.2179813E+00  0.1532825E+01
0.1475030E+01  0.2178147E+00  0.1470207E+01
0.1539206E+01  0.2578835E+00  0.1530634E+01
0.1521085E+01  0.2465697E+00  0.1513629E+01
0.1496499E+01  0.2146241E+00  0.1490216E+01
0.1481433E+01  0.1870688E+00  0.1474823E+01
0.1586261E+01  0.1960616E+00  0.1572994E+01
0.1460896E+01  0.2899333E+00  0.1457615E+01
0.1542195E+01  0.2867649E+00  0.1533552E+01
0.1486080E+01  0.2754813E+00  0.1481177E+01
0.1536278E+01  0.3247610E+00  0.1528351E+01
0.1510131E+01  0.3295675E+00  0.1503961E+01
0.1455545E+01  0.2514402E+00  0.1452347E+01
0.1610995E+01  0.1909452E+00  0.1595766E+01
0.1564462E+01  0.2395252E+00  0.1554120E+01
0.1571524E+01  0.3026484E+00  0.1560732E+01
0.1613657E+01  0.2555806E+00  0.1599516E+01
0.1633998E+01  0.2714643E+00  0.1617932E+01
0.1534973E+01  0.3650914E+00  0.1526386E+01
0.1583157E+01  0.2286349E+00  0.1570982E+01
0.1586501E+01  0.1581416E+00  0.1571521E+01
0.1651985E+01  0.2274641E+00  0.1634240E+01
0.1619170E+01  0.2936434E+00  0.1604393E+01
0.1678889E+01  0.2641389E+00  0.1658586E+01
0.1642286E+01  0.2930521E+00  0.1625263E+01
0.1526415E+01  0.3446283E+00  0.1518829E+01
0.1662420E+01  0.3044259E+00  0.1643560E+01
0.1636786E+01  0.2469276E+00  0.1620678E+01
0.1588953E+01  0.3366240E+00  0.1576956E+01
0.1616427E+01  0.3314099E+00  0.1602074E+01
0.1598305E+01  0.3102698E+00  0.1585374E+01
0.1655410E+01  0.2614708E+00  0.1637225E+01
0.1487553E+01  0.3072167E+00  0.1482640E+01
0.1520126E+01  0.3036443E+00  0.1513149E+01
0.1477894E+01  0.2544664E+00  0.1473546E+01
0.1567847E+01  0.2133479E+00  0.1556632E+01
0.1663947E+01  0.3299725E+00  0.1645539E+01
0.1567022E+01  0.2696000E+00  0.1556630E+01
0.1678598E+01  0.3509559E+00  0.1658497E+01
0.1611933E+01  0.3827205E+00  0.1596941E+01
0.1640491E+01  0.3197373E+00  0.1623987E+01
0.1588015E+01  0.2526666E+00  0.1575877E+01
0.1708471E+01  0.3144917E+00  0.1685629E+01
0.1606944E+01  0.3564315E+00  0.1592992E+01
0.1604614E+01  0.2314093E+00  0.1590725E+01
0.1643491E+01  0.3631133E+00  0.1626417E+01
0.2000000E+01  0.5000000E+00  0.1960540E+01
0.1494727E+01  0.3621796E+00  0.1489134E+01
0.1701807E+01  0.3477237E+00  0.1679405E+01
0.1572156E+01  0.3701847E+00  0.1561001E+01
0.1688392E+01  0.3285111E+00  0.1667613E+01
0.1695932E+01  0.3904821E+00  0.1673866E+01
0.1636337E+01  0.3418163E+00  0.1620297E+01
0.1505941E+01  0.9448485E-01  0.1484148E+01
0.1423727E+01  0.1910920E+00  0.1420231E+01
0.1481447E+01  0.3359634E+00  0.1477025E+01
0.1441613E+01  0.3726133E+00  0.1439447E+01
0.1466699E+01  0.3599060E+00  0.1463026E+01
0.1476682E+01  0.4107296E+00  0.1472358E+01
0.1434448E+01  0.3273535E+00  0.1432851E+01
0.1464523E+01  0.3867258E+00  0.1461114E+01
0.1456903E+01  0.3373583E+00  0.1454038E+01
0.1454188E+01  0.3132491E+00  0.1451264E+01
0.1424069E+01  0.2919612E+00  0.1422598E+01
0.1490969E+01  0.3884111E+00  0.1485765E+01
0.1428051E+01  0.4202828E+00  0.1426903E+01
0.1513790E+01  0.3782958E+00  0.1506832E+01
0.1547789E+01  0.4092466E+00  0.1538276E+01
0.1535154E+01  0.3889763E+00  0.1526554E+01
0.1512699E+01  0.4170463E+00  0.1506065E+01
0.1441554E+01  0.3983607E+00  0.1439588E+01
0.1395941E+01  0.3853832E+00  0.1396713E+01
0.1420578E+01  0.3854393E+00  0.1419813E+01
0.1408336E+01  0.3518173E+00  0.1408198E+01
0.1549967E+01  0.3074339E+00  0.1541015E+01
0.1651639E+01  0.4114272E+00  0.1633321E+01
0.1668616E+01  0.3788978E+00  0.1649233E+01
0.1674624E+01  0.4027285E+00  0.1654633E+01
0.1706988E+01  0.4343785E+00  0.1683628E+01
0.1673984E+01  0.4357547E+00  0.1653413E+01
0.1695270E+01  0.4139894E+00  0.1673304E+01
0.1737273E+01  0.4034108E+00  0.1711246E+01
0.1645630E+01  0.3875965E+00  0.1628209E+01
0.1625874E+01  0.4052508E+00  0.1609817E+01
0.1627808E+01  0.4540126E+00  0.1611878E+01
0.1587158E+01  0.4136289E+00  0.1574515E+01
0.1633718E+01  0.4293591E+00  0.1617284E+01
0.1651607E+01  0.4466828E+00  0.1633258E+01
0.1605650E+01  0.4356658E+00  0.1591440E+01
0.1682168E+01  0.4808869E+00  0.1660019E+01
0.1671711E+01  0.4594749E+00  0.1651293E+01
0.1698428E+01  0.4596870E+00  0.1675734E+01
0.1646221E+01  0.4851828E+00  0.1627675E+01
0.1607747E+01  0.4151289E+00  0.1593323E+01
0.1584205E+01  0.4841185E+00  0.1570987E+01
0.1747573E+01  0.4622079E+00  0.1720475E+01
0.1568396E+01  0.4481495E+00  0.1556901E+01
0.1601760E+01  0.4629165E+00  0.1587873E+01
0.1723356E+01  0.4540167E+00  0.1698428E+01
0.1732897E+01  0.4294241E+00  0.1706948E+01
0.1722218E+01  0.4972746E+00  0.1696679E+01
0.1715121E+01  0.4754441E+00  0.1690449E+01
0.1584567E+01  0.4345797E+00  0.1572116E+01
0.1563465E+01  0.4258523E+00  0.1552901E+01
0.1534166E+01  0.4440258E+00  0.1525503E+01
0.1615090E+01  0.4918227E+00  0.1599352E+01
0.1717469E+01  0.4134541E+00  0.1693339E+01
0.1718488E+01  0.3909170E+00  0.1694115E+01
0.1741353E+01  0.3769080E+00  0.1715159E+01
0.1781199E+01  0.4241746E+00  0.1751528E+01
0.2000000E+01  0.2500000E+00  0.1960360E+01
0.1756308E+01  0.4199875E+00  0.1728702E+01
0.1762447E+01  0.3937207E+00  0.1734447E+01
0.1765097E+01  0.4438197E+00  0.1736551E+01
0.1807974E+01  0.4625425E+00  0.1775587E+01
0.1789176E+01  0.4471344E+00  0.1758475E+01
0.1514158E+01  0.1287364E+00  0.1500072E+01
0.1777674E+01  0.4803377E+00  0.1748119E+01
0.1811145E+01  0.4395021E+00  0.1779125E+01
0.1850404E+01  0.4566449E+00  0.1815670E+01
0.1748483E+01  0.3522599E+00  0.1721890E+01
0.1731235E+01  0.3304535E+00  0.1706345E+01
0.1777870E+01  0.3654441E+00  0.1749023E+01
0.1748149E+01  0.2821176E+00  0.1721622E+01
0.1732875E+01  0.3039003E+00  0.1707803E+01
0.1708314E+01  0.2807181E+00  0.1685667E+01
0.1767650E+01  0.3193756E+00  0.1739749E+01
0.1372661E+01  0.1704076E+00  0.1369992E+01
0.1411157E+01  0.2494459E+00  0.1410336E+01
0.1448000E+01  0.2246098E+00  0.1444779E+01
0.1360382E+01  0.2278583E+00  0.1361419E+01
0.1433680E+01  0.2431125E+00  0.1431658E+01
0.1388814E+01  0.2314916E+00  0.1388630E+01
0.1314549E+01  0.2124991E+00  0.1317279E+01
0.1404157E+01  0.2007613E+00  0.1402462E+01
0.1415035E+01  0.1072182E+00  0.1403155E+01
0.1520299E+01  0.1091515E+00  0.1502038E+01
0.1459010E+01  0.1690672E+00  0.1452607E+01
0.1436337E+01  0.2690050E+00  0.1434256E+01
0.1443480E+01  0.1263360E+00  0.1433701E+01
0.1625000E+01  0.0000000E+00  0.1593478E+01
0.1414954E+01  0.2197329E+00  0.1413172E+01
0.1335299E+01  0.2266424E+00  0.1337382E+01
0.1396801E+01  0.1612344E+00  0.1392165E+01
0.1792033E+01  0.3934232E+00  0.1761889E+01
0.1541310E+01  0.1264947E+00  0.1525592E+01
0.1483859E+01  0.1256971E+00  0.1470560E+01
0.1500341E+01  0.1139400E+00  0.1484250E+01
0.1498380E+01  0.1421255E+00  0.1486547E+01
0.1478242E+01  0.1468909E+00  0.1468734E+01
0.1453147E+01  0.1972183E+00  0.1448668E+01
0.1348833E+01  0.2067866E+00  0.1349820E+01
0.1368157E+01  0.2800764E+00  0.1369672E+01
0.1250000E+01  0.0000000E+00  0.1232777E+01
0.1496272E+01  0.2780308E-01  0.1469632E+01
0.1430228E+01  0.1622338E+00  0.1424051E+01
0.1544491E+01  0.1012427E+00  0.1523247E+01
0.1505524E+01  0.5428530E-01  0.1480289E+01
0.1576405E+01  0.1180891E+00  0.1556924E+01
0.1526885E+01  0.8834234E-01  0.1503105E+01
0.1558557E+01  0.6358195E-01  0.1531944E+01
0.1372206E+01  0.9428859E-01  0.1358643E+01
0.1414069E+01  0.8636887E-01  0.1397878E+01
0.1351230E+01  0.1581055E+00  0.1348632E+01
0.1371634E+01  0.2528708E+00  0.1372766E+01
0.1392978E+01  0.2694234E+00  0.1393203E+01
0.1321668E+01  0.2603105E+00  0.1325217E+01
0.1392566E+01  0.3027057E+00  0.1393060E+01
0.1345601E+01  0.2495441E+00  0.1347844E+01
0.1349996E+01  0.1827855E+00  0.1349526E+01
0.1475238E+01  0.9618066E-01  0.1456359E+01
0.1487372E+01  0.4556180E+00  0.1482441E+01
0.1432024E+01  0.3509343E+00  0.1430377E+01
0.1619231E+01  0.5383449E+00  0.1602080E+01
0.1532505E+01  0.4233173E+00  0.1524235E+01
0.1547332E+01  0.4788657E+00  0.1537428E+01
0.1627786E+01  0.4750493E+00  0.1611138E+01
0.1750658E+01  0.4911384E+00  0.1723149E+01
0.1783313E+01  0.5336292E+00  0.1752639E+01
0.1744147E+01  0.5299352E+00  0.1716360E+01
0.1772978E+01  0.5077787E+00  0.1743258E+01
0.1739682E+01  0.5092411E+00  0.1712462E+01
0.1715917E+01  0.5251974E+00  0.1690486E+01
0.1809547E+01  0.4999146E+00  0.1776896E+01
0.1486188E+01  0.5335558E+00  0.1480691E+01
0.1695320E+01  0.5058771E+00  0.1672023E+01
0.1793562E+01  0.5145404E+00  0.1762043E+01
0.1827482E+01  0.5355643E+00  0.1793808E+01
0.1805457E+01  0.5332234E+00  0.1773159E+01
0.1812320E+01  0.5734372E+00  0.1779807E+01
0.1794794E+01  0.5557356E+00  0.1763432E+01
0.1637325E+01  0.5533192E+00  0.1618514E+01
0.1761146E+01  0.5591762E+00  0.1732143E+01
0.1789115E+01  0.5788851E+00  0.1758013E+01
0.1693317E+01  0.6123782E+00  0.1670746E+01
0.1522396E+01  0.5359490E+00  0.1514002E+01
0.1814654E+01  0.6254783E+00  0.1782031E+01
0.1726166E+01  0.5505978E+00  0.1699612E+01
0.1691322E+01  0.5307786E+00  0.1668231E+01
0.1516987E+01  0.5143680E+00  0.1509413E+01
0.1661909E+01  0.5147686E+00  0.1641044E+01
0.1761865E+01  0.6508066E+00  0.1733310E+01
0.1692174E+01  0.5698207E+00  0.1669073E+01
0.1780214E+01  0.6037461E+00  0.1750024E+01
[...]
POINT_DATA    3280
SCALARS hauteur float
LOOKUP_TABLE DEFAULT
       2.3616086E-02
       1.6714275E-04
       3.1073842E-04
       2.3658967E-02
       1.2761753E-02
       1.1853231E-02
       2.4062648E-02
       2.4794673E-03
       1.0116188E-02
       2.4024011E-02
       2.3518703E-02
       1.9230242E-02
       2.0044449E-02
       2.0745884E-02
       2.1358619E-02
       3.1098399E-04
       2.0966396E-02
       2.3035419E-02
       1.1719995E-02
       1.8290878E-02
       2.2333535E-02
       2.1698358E-02
       2.4579616E-02
       2.2110163E-02
       2.2863784E-02
       2.3547189E-02
       2.2920457E-02
       1.8351670E-02
       2.5839296E-02
       2.2098061E-02
       2.4719863E-02
       2.2695899E-02
       2.3932918E-02
       2.5816061E-02
       1.6883475E-02
       2.0842599E-02
       2.0534756E-02
       1.8024584E-02
       1.6504818E-02
       2.2009772E-02
       1.9381955E-02
       1.6643477E-02
       1.5184390E-02
       1.7499305E-02
       1.3163021E-02
       1.5712789E-02
       2.2841392E-02
       1.4278090E-02
       1.6518478E-02
       1.9675961E-02
       1.7868136E-02
       1.8929327E-02
       1.4812887E-02
       2.4739335E-02
       2.3323981E-02
       2.5111989E-02
       2.0037386E-02
       1.4759509E-02
       2.0843163E-02
       1.3358688E-02
       1.7139447E-02
       1.6196995E-02
       1.9516537E-02
       1.1214089E-02
       1.8080017E-02
       1.8095957E-02
       1.5686735E-02
       4.0730660E-04
       2.4201912E-02
       1.1521377E-02
       2.0183538E-02
       1.2876214E-02
       1.1738829E-02
       1.6577139E-02
       8.2260601E-03
       2.4882803E-02
       2.5108601E-02
       2.6570632E-02
       2.5563408E-02
       2.5111379E-02
       2.6997063E-02
       2.5783650E-02
       2.6175596E-02
       2.6062937E-02
       2.6915060E-02
       2.4516575E-02
       2.7317853E-02
       2.3217691E-02
       2.1339083E-02
       2.2000748E-02
       2.3518926E-02
       2.6768868E-02
       2.8597746E-02
       2.7552492E-02
       2.7935601E-02
       2.1944726E-02
       1.4604878E-02
       1.3878114E-02
       1.3389081E-02
       1.0665931E-02
       1.2796955E-02
       1.1827302E-02
       8.6027783E-03
       1.5381969E-02
       1.6351605E-02
       1.6518706E-02
       1.8994121E-02
       1.6132247E-02
       1.4572622E-02
       1.7796510E-02
       1.1382255E-02
       1.2904598E-02
       1.1162199E-02
       1.4268798E-02
       1.7623757E-02
       1.8360900E-02
       7.7376209E-03
       1.9767871E-02
       1.8041401E-02
       9.4243841E-03
       8.5937289E-03
       8.7909248E-03
       9.5168826E-03
       1.9134208E-02
       2.0601229E-02
       2.1918659E-02
       1.6456293E-02
       1.0105328E-02
       9.8824279E-03
       8.5175909E-03
       5.8338901E-03
       2.2634508E-04
       7.4029125E-03
       7.1319868E-03
       6.6380920E-03
       3.6525304E-03
       4.9635885E-03
       1.6095674E-02
       5.8805005E-03
       4.0821901E-03
       2.1515194E-03
       8.2608846E-03
       9.6192496E-03
       6.5920776E-03
       8.3196849E-03
       9.4701613E-03
       1.1405814E-02
       7.3346031E-03
       2.4693105E-02
       2.7308586E-02
       2.5642292E-02
       2.8154377E-02
       2.6555749E-02
       2.7500469E-02
       2.8933826E-02
       2.6294105E-02
       1.6326753E-02
       1.2043413E-02
       2.2680699E-02
       2.6550305E-02
       1.8994880E-02
       8.7019220E-04
       2.6422753E-02
       2.8699422E-02
       2.3206458E-02
       5.5779453E-03
       1.5005296E-02
       1.6278682E-02
       1.3816152E-02
       1.8035216E-02
       1.9958037E-02
       2.4486914E-02
       2.7873826E-02
       2.8787083E-02
       7.6942378E-03
       3.1866234E-03
       2.2331990E-02
       9.5427925E-03
       4.7756860E-03
       1.1942339E-02
       6.6562669E-03
       4.4547792E-03
       1.3790173E-02
       1.1996876E-02
       2.4336844E-02
       2.8473626E-02
       2.7991861E-02
       2.9894368E-02
       2.8252110E-02
       2.9065112E-02
       2.6440287E-02
       1.0527889E-02
       2.4717205E-02
       2.6897971E-02
       1.5125861E-02
       2.2278607E-02
       2.0939665E-02
       1.5799045E-02
       7.3875173E-03
       4.8739603E-03
       6.9796066E-03
       5.6222360E-03
       7.4574489E-03
       8.7729059E-03
       3.4201295E-03
       2.4127536E-02
       1.0495803E-02
       4.2328663E-03
       2.7540713E-03
       3.6908407E-03
       3.6124978E-03
       4.4147563E-03
       1.3825900E-02
       6.1031366E-03
       4.5610114E-03
       1.1183197E-02
       2.1952222E-02
       3.5493914E-03
       7.8536071E-03
       1.0623185E-02
       2.2664520E-02
       1.2262517E-02
       6.5649651E-03
       1.0630158E-02
       5.2966012E-03
       1.9453003E-02
       1.1855815E-02
       6.8661700E-03
       1.7986747E-02
       1.3711282E-02
       7.8966713E-03
       7.5115175E-03
       1.0465617E-02
       1.0943417E-02
       3.2464071E-03
       5.1335752E-03
       4.8441779E-04
       8.6996213E-03
       2.0898966E-03
       5.5598910E-03
       6.3131784E-03
       1.2695062E-02
       9.8088525E-03
       4.5703202E-03
       2.9964836E-03
       3.0677250E-03
       4.0682214E-03
       4.9322881E-03
       5.0732108E-03
       6.7114989E-03
       1.8573073E-02
       2.6901095E-02
       1.3600543E-02
       1.5947264E-02
       1.8506890E-02
       2.1554753E-02
       4.2458700E-03
       6.7564986E-03
       4.0359358E-03
       1.7039657E-03
       1.4825005E-03
       2.3348904E-03
       8.0131260E-03
       7.5572757E-03
       1.7025562E-03
       1.1501285E-02
       3.2983629E-03
       1.0406889E-02
       2.3934397E-03
       5.8779800E-04
       6.7338151E-03
       1.4733142E-02
       1.3532070E-02
       1.5880765E-02
       6.7112176E-03
       1.6130439E-02
       2.1922117E-02
       2.0351999E-02
       2.6111259E-02
       2.4480318E-02
       2.1461308E-02
       2.5151494E-02
       1.0905473E-02
       4.8542828E-03
       2.0947650E-02
       7.4223673E-03
       1.9952495E-02
       4.8768787E-03
       2.7595848E-02
       2.7665968E-02
       2.8585804E-02
       2.9000834E-02
       2.9637532E-02
       2.4503127E-02
       2.3253096E-02
       2.5942363E-02
       2.2321550E-02
       2.2396530E-02
       1.7188007E-02
       2.0835047E-02
       1.3432690E-02
       2.0952252E-02
       1.9626444E-02
       4.2941971E-03
       2.9394822E-03
       2.4320610E-03
       5.8862209E-03
       1.2586364E-02
       2.7461200E-03
       3.9414344E-03
       1.4304460E-02
       1.7333818E-02
       4.2179338E-03
       1.0740658E-02
       4.3707074E-03
       9.0988736E-03
       7.1951336E-03
       8.9811532E-03
       8.5813450E-03
       4.1597061E-03
       2.3359649E-03
       9.6313833E-05
       5.6912218E-03
       1.3520216E-03
       8.3562256E-03
       4.9688131E-03
       1.4035967E-02
       4.1264629E-04
       2.8511601E-03
       7.2896584E-03
       6.6293105E-03
       1.2328972E-02
       9.0889391E-03
       2.6530610E-03
       1.6062693E-02
       1.2499091E-03
       1.0831040E-02
       1.9529929E-02
       1.1301466E-03
       6.2513644E-04
       1.2388707E-02
       1.2805702E-02
       1.2735023E-02
       1.2418804E-02
       6.7253228E-03
       1.5333090E-02
       1.4564005E-02
       1.4426360E-02
       1.6581841E-02
       1.3870149E-02
       8.8601453E-03
       1.2495987E-02
       1.1277765E-02
       4.1725694E-04
       2.8485715E-03
       2.9416375E-03
       4.2700982E-03
       2.3583690E-03
       2.4052147E-03
       1.0787643E-03
       1.0605549E-03
       7.2538083E-04
       1.2903310E-02
       1.5225692E-02
       1.4782231E-02
       1.1525576E-02
       1.6294334E-02
       9.6700662E-03
       3.6190760E-03
       7.7503477E-03
       4.2081672E-03
       3.0387007E-03
       2.0262651E-03
       3.1225194E-03
       3.8644774E-03
       2.7192541E-02
       3.0442003E-02
       2.8935558E-02
       2.9705935E-02
       3.0646469E-02
       2.9422706E-02
       3.0333781E-02
       3.1476747E-02
       3.1047535E-02
       3.2132547E-02
       3.0704559E-02
       3.1681235E-02
       3.2871761E-02
       3.2205727E-02
       3.2067879E-02
       3.2094183E-02
       3.1237431E-02
       2.9907023E-02
       2.9366125E-02
       2.9435525E-02
       2.9308487E-02
       3.0283319E-02
       3.0965867E-02
       3.1038184E-02
       2.7697053E-02
       2.4754900E-02
       2.7868042E-02
       2.6364118E-02
       2.4949450E-02
       2.9371113E-02
       3.0666594E-02
       3.0344154E-02
       2.9818691E-02
       2.9654850E-02
       3.0409678E-02
       3.1975992E-02
       3.1314411E-02
       2.9264650E-02
       3.1123854E-02
       3.1823473E-02
       3.2095304E-02
       3.1362221E-02
       2.9858853E-02
       3.0269904E-02
       3.3566269E-02
       3.1359534E-02
       3.3361698E-02
       3.2763009E-02
       3.2741791E-02
       3.2869623E-02
       3.4026504E-02
       3.3418893E-02
       3.3329671E-02
       3.2659488E-02
       3.3262431E-02
       3.4508896E-02
       3.3835244E-02
       3.4248580E-02
       3.3280852E-02
       3.5422858E-02
       3.2724537E-02
       3.4663298E-02
       3.1510358E-02
       3.3931263E-02
       3.4918953E-02
       3.5771114E-02
       3.5554325E-02
       3.6685797E-02
       3.6101341E-02
       3.5454908E-02
       3.4419516E-02
       3.2399211E-02
       3.3287737E-02
       3.6160306E-02
       3.6418612E-02
       3.6514878E-02
       3.7527443E-02
       3.7089551E-02
       3.5200103E-02
       3.6911870E-02
       3.1697655E-02
       3.3124841E-02
       3.6949597E-02
       3.6969540E-02
       3.6108686E-02
       3.6776218E-02
       3.7249557E-02
       3.0533950E-02
       3.3048074E-02
       3.8008421E-02
       3.2264959E-02
       3.4459835E-02
       3.7548034E-02
       3.7813695E-02
       3.0580118E-02
       3.3891787E-02
       3.4588371E-02
       3.7352656E-02
       3.7797485E-02
       3.7740925E-02
       3.8751642E-02
       3.8350026E-02
       3.1383438E-02
       3.0495311E-02
       3.1824606E-02
       2.8421249E-02
       3.1927742E-02
       2.9544136E-02
       2.9699093E-02
       2.9299740E-02
       3.8504281E-02
       3.9483843E-02
       2.8304733E-02
       3.8203271E-02
       3.8900066E-02
       3.8093351E-02
       3.9033566E-02
       2.7146200E-02
       2.8789508E-02
       2.7852667E-02
       2.6187823E-02
       2.7250571E-02
       2.7376939E-02
       3.8637414E-02
       3.8123993E-02
       3.9107525E-02
       3.8106150E-02
       2.6215315E-02
       2.5138133E-02
       3.7820592E-02
       3.9578038E-02
       3.8733109E-02
       3.6870954E-02
       2.5348288E-02
       3.9255713E-02
       3.7454753E-02
       3.6753062E-02
       2.6641278E-02
       3.8668680E-02
       3.9366019E-02
       3.7848323E-02
       4.0390211E-02
       3.7957021E-02
       3.9984826E-02
       3.9926105E-02
       3.9974344E-02
       4.0343285E-02
       3.9996397E-02
       3.9546814E-02
       3.9491981E-02
       4.0851252E-02
       4.0412255E-02
       4.0983974E-02
       4.0516057E-02
       4.0783603E-02
       2.6221471E-02
       3.2383901E-03
       2.1333927E-03
       9.8913806E-04
       1.5888464E-03
       1.0243583E-03
       1.4597825E-03
       1.3267324E-03
       1.8143944E-03
       2.0152171E-03
       1.7459960E-03
       2.3180178E-03
       2.3566014E-04
       3.5663605E-04
       1.1386945E-03
       1.2597428E-03
       8.2905448E-04
       5.4566353E-04
       1.3170418E-03
       3.7869592E-04
       4.3251097E-04
       8.7910190E-04
       6.0485883E-04
       3.5881430E-04
       5.3832857E-04
       2.3447554E-04
       2.4027627E-02
       1.2688706E-02
       1.1676494E-02
       1.4558735E-02
       1.3230496E-02
       1.3638478E-02
       1.5557090E-02
       2.1206876E-02
       1.8348593E-02
       2.0663861E-02
       2.1898036E-02
       1.9028247E-02
       2.0129288E-02
       1.7550071E-02
       2.0741368E-02
       2.2447503E-02
       2.2089407E-02
       2.3518632E-02
       2.4646125E-02
       2.3893161E-02
       2.2085326E-02
       1.9610625E-02
       2.0839172E-02
       2.0624625E-02
       2.1116610E-02
       2.2946677E-02
       2.1808532E-02
       2.0939775E-02
       2.1951874E-02
       2.1124526E-02
       2.2279599E-02
       1.8890704E-02
       2.2046910E-02
       2.0002125E-02
       2.3577280E-02
       2.1056909E-02
       2.3002272E-02
       2.4168138E-02
       2.0863756E-02
       2.1109889E-02
       2.2431236E-02
       2.3983982E-02
       2.5553336E-02
       2.4647718E-02
       2.3762623E-02
       2.6210344E-02
       2.4368963E-02
       2.5187026E-02
       2.4515296E-02
       2.3469833E-02
       2.5332553E-02
       2.5048627E-02
       2.6657385E-02
       2.4871730E-02
       2.5922947E-02
       2.8058608E-02
       2.7048076E-02
       2.8406467E-02
       5.6720021E-03
       7.3173204E-03
       8.7999396E-03
       9.6398037E-03
       9.4968277E-03
       9.8096555E-03
       3.0653154E-03
       8.2493622E-04
       3.5450610E-03
       1.5647995E-03
       1.0564619E-02
       1.6454449E-02
       1.0548832E-02
       9.1455289E-03
       1.3279282E-02
       1.3825376E-02
       1.1624649E-02
       9.0738306E-03
       9.5428622E-03
       1.0869615E-02
       1.1376723E-02
       1.3508072E-02
       7.5983118E-03
       5.9909473E-03
       7.8632232E-03
       7.6230252E-03
       5.7347712E-03
       6.5353812E-03
       7.7040844E-03
       3.6037962E-03
       3.4080474E-03
       5.0452641E-03
       3.5896263E-03
       4.5333174E-03
       4.6550010E-03
       8.9365208E-03
       3.6659920E-03
       5.1997406E-03
       2.8366326E-03
       1.3602411E-03
       1.3846034E-03
       8.6088021E-04
       1.6649622E-02
       1.8508443E-02
       1.8337373E-02
       4.3422530E-03
       5.1779261E-03
       6.0144296E-03
       3.6020206E-03
       3.7287617E-03
       2.3801066E-03
       2.7856267E-02
       2.7155419E-02
       2.9044619E-02
       2.7162138E-02
       2.9213316E-02
       2.5382855E-02
       3.0442836E-02
       2.4883204E-02
       3.1567448E-02
       3.0235815E-02
       2.7121412E-02
       2.8475332E-02
       1.6916403E-02
       3.1144474E-02
       2.1799934E-02
       2.2163206E-02
       1.0696625E-02
       2.0790818E-02
       3.2235908E-02
       1.4191015E-02
       9.9884884E-03
       1.4175224E-02
       1.3660138E-02
       3.0756483E-02
       3.2231365E-02
       2.4043078E-02
       2.2497466E-02
       3.0969435E-02
       3.3630269E-02
       3.3923401E-02
       3.0850882E-02
       3.3753738E-02
       3.5940038E-02
       3.5238820E-02
       3.8512453E-02
       3.7238515E-02
       3.9195778E-02
       3.8596029E-02
       3.9171926E-02
       3.8512750E-02
       3.9192846E-02
       4.0292077E-02
       3.9742481E-02
       3.9779035E-02
       3.9845891E-02
       3.6932264E-02
       3.7576682E-02
       3.6000918E-02
       3.7294767E-02
       3.9880738E-02
       4.0075473E-02
       3.9315682E-02
       3.9101557E-02
       3.9461300E-02
       4.0632561E-02
       4.1763604E-02
       1.9158850E-03
       4.4292136E-04
       7.4303379E-04
       3.4580968E-04
       1.5360969E-02
       1.6532918E-02
       1.4798558E-02
       1.6616980E-02
       1.6054420E-02
       2.3462981E-02
       2.6529429E-02
       2.5909477E-02
       1.7859635E-02
       1.6630406E-02
       1.8071610E-02
       2.3378846E-02
       2.2646406E-02
       2.0954646E-02
       2.6280807E-02
       2.9561116E-02
       1.2839550E-03
       6.8590023E-04
       2.0160761E-03
       9.8700300E-04
       1.2653843E-03
       3.4763958E-03
       3.3375117E-04
       1.1508201E-03
       1.3463955E-04
       2.5153530E-04
       3.8903469E-04
       5.7417384E-04
       2.0043677E-04
       5.4068027E-04
       1.4812528E-04
       5.3190178E-03
       6.9221066E-03
       1.6731320E-03
       2.3014478E-03
       1.4301163E-02
       1.5553069E-02
       1.7608642E-02
       1.8075538E-02
       1.8127265E-02
       1.9503119E-02
       1.9664768E-02
       8.8686363E-03
       8.2951174E-03
       1.2146799E-02
       1.3236642E-02
       4.0143824E-03
       1.0215093E-02
       1.1447137E-02
       2.3208815E-03
       1.0553893E-02
       1.3191343E-02
       1.4900415E-02
       1.4850000E-02
       1.6083223E-02
       1.4502750E-02
       6.5537659E-04
       1.6500499E-02
       1.2482483E-02
       1.6097097E-02
       1.1390044E-02
       1.1677520E-02
       1.1012889E-02
       4.6766340E-03
       7.9072224E-03
       5.9422872E-03
       7.1378316E-03
       5.6513178E-03
       2.4766869E-03
       1.0672617E-03
       1.5606300E-02
       1.4665453E-02
       1.7102934E-02
       5.9597456E-03
       6.1820933E-03
       5.2408109E-03
       7.9142200E-03
       6.8296196E-03
       6.0703801E-03
       9.9229705E-03
       2.9330839E-03
       8.5303260E-04
       6.3641761E-04
       2.2093418E-02
       1.7201771E-02
       1.0929488E-02
       1.3314144E-02
       1.0610346E-02
       1.5619336E-02
       1.8304479E-02
       1.7392064E-02
       3.3056706E-02
       3.5143871E-02
       3.5303025E-02
       3.5467933E-02
       3.5507962E-02
       3.6060675E-02
       3.4582728E-02
       3.4341830E-02
       3.5108693E-02
       3.4319408E-02
       3.8510732E-02
       3.8388388E-02
       4.3437668E-02
       3.8274733E-02
       3.6704303E-02
       4.0969700E-02
       4.0213166E-02
       4.1029968E-02
       4.0231468E-02
       3.8873739E-02
       4.2091249E-02
       3.3997686E-02
       4.1706709E-02
       4.2818662E-02
       3.6953013E-02
       3.2940558E-02
       4.2840783E-02
       4.2498643E-02
       4.0629572E-02
       4.0950338E-02
       4.1165473E-02
       3.4286829E-02
       4.2062384E-02
       3.7082713E-02
       4.1603446E-02
       3.5798776E-02
       4.2459479E-02
       4.1428892E-02
       4.2037153E-02
       4.1704423E-02
       4.2214018E-02
       4.0747404E-02
       4.2791423E-02
       3.8811783E-02
       4.2498392E-02
       3.8381007E-02
       3.7559534E-02
       4.2292410E-02
       4.2808002E-02
       3.9003011E-02
       3.7530985E-02
       1.9107605E-02
       4.3227075E-02
       1.6822364E-02
       4.3611202E-02
       3.9286869E-02
       4.3410242E-02
       3.5595501E-02
       3.4491064E-02
       4.3475149E-02
       4.3867996E-02
       4.3850630E-02
       4.4416195E-02
       4.3182131E-02
       4.3081603E-02
       3.8407970E-02
       3.6495153E-02
       3.8010743E-02
       3.6022077E-02
       3.5420419E-02
       4.1446062E-02
       3.6919625E-02
       3.7978898E-02
       3.5008005E-02
       3.5575747E-02
       3.7110967E-02
       4.5015449E-02
       3.9540947E-02
       4.2270460E-02
       3.6543486E-02
       4.1997228E-02
       3.7033917E-02
       3.6414025E-02
       3.5381257E-02
       3.4510766E-02
       3.5875367E-02
       3.6325854E-02
       3.6504469E-02
       3.6109943E-02
       3.5584483E-02
       3.6010313E-02
       3.5101520E-02
       3.5923864E-02
       3.4386057E-02
       3.4036094E-02
       3.4700574E-02
       3.4006220E-02
       3.4684794E-02
       3.5327927E-02
       3.4820778E-02
       3.4050189E-02
       3.3336826E-02
       3.3165008E-02
       3.3044970E-02
       3.1991121E-02
       3.3605076E-02
       3.3994273E-02
       3.7543372E-02
       3.9848784E-02
       3.8915786E-02
       3.9200015E-02
       4.0366558E-02
       4.1404370E-02
       4.1148317E-02
       4.1416300E-02
       4.1179805E-02
       4.0719292E-02
       4.1553945E-02
       4.1045877E-02
       4.2102063E-02
       4.1031890E-02
       4.2003046E-02
       4.1682757E-02
       4.2415629E-02
       4.1384326E-02
       4.1409915E-02
       4.1395139E-02
       4.0443922E-02
       4.1817953E-02
       4.0974868E-02
       4.0651090E-02
       4.1631010E-02
       4.1715769E-02