# vtk DataFile Version 3.0
# Solution du M1 TR
ASCII
DATASET UNSTRUCTURED_GRID
POINTS   3280  float
0.0000000E+00  0.0000000E+00  0.2276087E-01
0.2000000E+01  0.0000000E+00  0.1960244E+01
0.2000000E+01  0.1000000E+01  0.1960399E+01
0.0000000E+00  0.1000000E+01  0.2291938E-01
0.1000000E+01  0.0000000E+00  0.9920188E+00
0.1000000E+01  0.1000000E+01  0.9919062E+00
0.1500000E+01  0.5000000E+00  0.1496823E+01
0.1500000E+01  0.0000000E+00  0.1473687E+01
0.1723284E+01  0.3570951E+00  0.1702244E+01
0.1500000E+01  0.2500000E+00  0.1495393E+01
0.1515103E+01  0.2763186E+00  0.1510050E+01
0.1594866E+01  0.2826386E+00  0.1584975E+01
0.1562500E+01  0.1875000E+00  0.1553399E+01
0.1534357E+01  0.1819434E+00  0.1526172E+01
0.1561083E+01  0.3343258E+00  0.1553590E+01
0.1750000E+01  0.0000000E+00  0.1715447E+01
0.1503267E+01  0.1622339E+00  0.1495631E+01
0.1514910E+01  0.2261192E+00  0.1509173E+01
0.1610795E+01  0.1290247E+00  0.1593463E+01
0.1539062E+01  0.1536458E+00  0.1528640E+01
0.1510772E+01  0.1982718E+00  0.1504347E+01
0.1541862E+01  0.2179813E+00  0.1534579E+01
0.1475030E+01  0.2178147E+00  0.1471117E+01
0.1539206E+01  0.2578835E+00  0.1532549E+01
0.1521085E+01  0.2465697E+00  0.1515242E+01
0.1496499E+01  0.2146241E+00  0.1491362E+01
0.1481433E+01  0.1870688E+00  0.1475844E+01
0.1586261E+01  0.1960616E+00  0.1575522E+01
0.1460896E+01  0.2899333E+00  0.1458706E+01
0.1542195E+01  0.2867649E+00  0.1535577E+01
0.1486080E+01  0.2754813E+00  0.1482480E+01
0.1536278E+01  0.3247610E+00  0.1530329E+01
0.1510131E+01  0.3295675E+00  0.1505703E+01
0.1455545E+01  0.2514402E+00  0.1453199E+01
0.1610995E+01  0.1909452E+00  0.1598733E+01
0.1564462E+01  0.2395252E+00  0.1556265E+01
0.1571524E+01  0.3026484E+00  0.1563139E+01
0.1613657E+01  0.2555806E+00  0.1602416E+01
0.1633998E+01  0.2714643E+00  0.1621079E+01
0.1534973E+01  0.3650914E+00  0.1528654E+01
0.1583157E+01  0.2286349E+00  0.1573451E+01
0.1586501E+01  0.1581416E+00  0.1574057E+01
0.1651985E+01  0.2274641E+00  0.1637600E+01
0.1619170E+01  0.2936434E+00  0.1607377E+01
0.1678889E+01  0.2641389E+00  0.1662012E+01
0.1642286E+01  0.2930521E+00  0.1628510E+01
0.1526415E+01  0.3446283E+00  0.1520850E+01
0.1662420E+01  0.3044259E+00  0.1646921E+01
0.1636786E+01  0.2469276E+00  0.1623849E+01
0.1588953E+01  0.3366240E+00  0.1579562E+01
0.1616427E+01  0.3314099E+00  0.1604987E+01
0.1598305E+01  0.3102698E+00  0.1588109E+01
0.1655410E+01  0.2614708E+00  0.1640592E+01
0.1487553E+01  0.3072167E+00  0.1484122E+01
0.1520126E+01  0.3036443E+00  0.1514950E+01
0.1477894E+01  0.2544664E+00  0.1474615E+01
0.1567847E+01  0.2133479E+00  0.1558796E+01
0.1663947E+01  0.3299725E+00  0.1648786E+01
0.1567022E+01  0.2696000E+00  0.1558931E+01
0.1678598E+01  0.3509559E+00  0.1661814E+01
0.1611933E+01  0.3827205E+00  0.1600129E+01
0.1640491E+01  0.3197373E+00  0.1627137E+01
0.1588015E+01  0.2526666E+00  0.1578445E+01
0.1708471E+01  0.3144917E+00  0.1688873E+01
0.1606944E+01  0.3564315E+00  0.1595915E+01
0.1604614E+01  0.2314093E+00  0.1593577E+01
0.1643491E+01  0.3631133E+00  0.1629635E+01
0.2000000E+01  0.5000000E+00  0.1960521E+01
0.1494727E+01  0.3621796E+00  0.1490892E+01
0.1701807E+01  0.3477237E+00  0.1682680E+01
0.1572156E+01  0.3701847E+00  0.1563621E+01
0.1688392E+01  0.3285111E+00  0.1670930E+01
0.1695932E+01  0.3904821E+00  0.1677232E+01
0.1636337E+01  0.3418163E+00  0.1623385E+01
0.1505941E+01  0.9448485E-01  0.1486292E+01
0.1423727E+01  0.1910920E+00  0.1420748E+01
0.1481447E+01  0.3359634E+00  0.1478525E+01
0.1441613E+01  0.3726133E+00  0.1440771E+01
0.1466699E+01  0.3599060E+00  0.1464514E+01
0.1476682E+01  0.4107296E+00  0.1474104E+01
0.1434448E+01  0.3273535E+00  0.1433917E+01
0.1464523E+01  0.3867258E+00  0.1462637E+01
0.1456903E+01  0.3373583E+00  0.1455324E+01
0.1454188E+01  0.3132491E+00  0.1452469E+01
0.1424069E+01  0.2919612E+00  0.1423491E+01
0.1490969E+01  0.3884111E+00  0.1487544E+01
0.1428051E+01  0.4202828E+00  0.1428215E+01
0.1513790E+01  0.3782958E+00  0.1508861E+01
0.1547789E+01  0.4092466E+00  0.1540874E+01
0.1535154E+01  0.3889763E+00  0.1528915E+01
0.1512699E+01  0.4170463E+00  0.1508172E+01
0.1441554E+01  0.3983607E+00  0.1440933E+01
0.1395941E+01  0.3853832E+00  0.1397618E+01
0.1420578E+01  0.3854393E+00  0.1420944E+01
0.1408336E+01  0.3518173E+00  0.1409150E+01
0.1549967E+01  0.3074339E+00  0.1543120E+01
0.1651639E+01  0.4114272E+00  0.1636874E+01
0.1668616E+01  0.3788978E+00  0.1652586E+01
0.1674624E+01  0.4027285E+00  0.1658117E+01
0.1706988E+01  0.4343785E+00  0.1687139E+01
0.1673984E+01  0.4357547E+00  0.1657071E+01
0.1695270E+01  0.4139894E+00  0.1676817E+01
0.1737273E+01  0.4034108E+00  0.1714351E+01
0.1645630E+01  0.3875965E+00  0.1631574E+01
0.1625874E+01  0.4052508E+00  0.1613190E+01
0.1627808E+01  0.4540126E+00  0.1615465E+01
0.1587158E+01  0.4136289E+00  0.1577526E+01
0.1633718E+01  0.4293591E+00  0.1620806E+01
0.1651607E+01  0.4466828E+00  0.1636986E+01
0.1605650E+01  0.4356658E+00  0.1594789E+01
0.1682168E+01  0.4808869E+00  0.1663796E+01
0.1671711E+01  0.4594749E+00  0.1655109E+01
0.1698428E+01  0.4596870E+00  0.1679381E+01
0.1646221E+01  0.4851828E+00  0.1631613E+01
0.1607747E+01  0.4151289E+00  0.1596556E+01
0.1584205E+01  0.4841185E+00  0.1574686E+01
0.1747573E+01  0.4622079E+00  0.1723446E+01
0.1568396E+01  0.4481495E+00  0.1560057E+01
0.1601760E+01  0.4629165E+00  0.1591371E+01
0.1723356E+01  0.4540167E+00  0.1701792E+01
0.1732897E+01  0.4294241E+00  0.1710110E+01
0.1722218E+01  0.4972746E+00  0.1699985E+01
0.1715121E+01  0.4754441E+00  0.1693899E+01
0.1584567E+01  0.4345797E+00  0.1575271E+01
0.1563465E+01  0.4258523E+00  0.1555738E+01
0.1534166E+01  0.4440258E+00  0.1528207E+01
0.1615090E+01  0.4918227E+00  0.1603279E+01
0.1717469E+01  0.4134541E+00  0.1696692E+01
0.1718488E+01  0.3909170E+00  0.1697364E+01
0.1741353E+01  0.3769080E+00  0.1718167E+01
0.1781199E+01  0.4241746E+00  0.1753854E+01
0.2000000E+01  0.2500000E+00  0.1960360E+01
0.1756308E+01  0.4199875E+00  0.1731539E+01
0.1762447E+01  0.3937207E+00  0.1737170E+01
0.1765097E+01  0.4438197E+00  0.1739174E+01
0.1807974E+01  0.4625425E+00  0.1777012E+01
0.1789176E+01  0.4471344E+00  0.1760473E+01
0.1514158E+01  0.1287364E+00  0.1502123E+01
0.1777674E+01  0.4803377E+00  0.1750459E+01
0.1811145E+01  0.4395021E+00  0.1780756E+01
0.1850404E+01  0.4566449E+00  0.1816388E+01
0.1748483E+01  0.3522599E+00  0.1724759E+01
0.1731235E+01  0.3304535E+00  0.1709418E+01
0.1777870E+01  0.3654441E+00  0.1751521E+01
0.1748149E+01  0.2821176E+00  0.1724524E+01
0.1732875E+01  0.3039003E+00  0.1710849E+01
0.1708314E+01  0.2807181E+00  0.1688972E+01
0.1767650E+01  0.3193756E+00  0.1742346E+01
0.1372661E+01  0.1704076E+00  0.1370272E+01
0.1411157E+01  0.2494459E+00  0.1410806E+01
0.1448000E+01  0.2246098E+00  0.1445425E+01
0.1360382E+01  0.2278583E+00  0.1361560E+01
0.1433680E+01  0.2431125E+00  0.1432275E+01
0.1388814E+01  0.2314916E+00  0.1388913E+01
0.1314549E+01  0.2124991E+00  0.1317205E+01
0.1404157E+01  0.2007613E+00  0.1402771E+01
0.1415035E+01  0.1072182E+00  0.1404426E+01
0.1520299E+01  0.1091515E+00  0.1504443E+01
0.1459010E+01  0.1690672E+00  0.1453467E+01
0.1436337E+01  0.2690050E+00  0.1435065E+01
0.1443480E+01  0.1263360E+00  0.1434833E+01
0.1625000E+01  0.0000000E+00  0.1593840E+01
0.1414954E+01  0.2197329E+00  0.1413610E+01
0.1335299E+01  0.2266424E+00  0.1337404E+01
0.1396801E+01  0.1612344E+00  0.1392692E+01
0.1792033E+01  0.3934232E+00  0.1764108E+01
0.1541310E+01  0.1264947E+00  0.1527889E+01
0.1483859E+01  0.1256971E+00  0.1472280E+01
0.1500341E+01  0.1139400E+00  0.1486412E+01
0.1498380E+01  0.1421255E+00  0.1488219E+01
0.1478242E+01  0.1468909E+00  0.1470006E+01
0.1453147E+01  0.1972183E+00  0.1449391E+01
0.1348833E+01  0.2067866E+00  0.1349889E+01
0.1368157E+01  0.2800764E+00  0.1370032E+01
0.1250000E+01  0.0000000E+00  0.1233570E+01
0.1496272E+01  0.2780308E-01  0.1470970E+01
0.1430228E+01  0.1622338E+00  0.1424809E+01
0.1544491E+01  0.1012427E+00  0.1525709E+01
0.1505524E+01  0.5428530E-01  0.1482006E+01
0.1576405E+01  0.1180891E+00  0.1559504E+01
0.1526885E+01  0.8834234E-01  0.1505243E+01
0.1558557E+01  0.6358195E-01  0.1533736E+01
0.1372206E+01  0.9428859E-01  0.1359765E+01
0.1414069E+01  0.8636887E-01  0.1399341E+01
0.1351230E+01  0.1581055E+00  0.1348881E+01
0.1371634E+01  0.2528708E+00  0.1373010E+01
0.1392978E+01  0.2694234E+00  0.1393649E+01
0.1321668E+01  0.2603105E+00  0.1325252E+01
0.1392566E+01  0.3027057E+00  0.1393662E+01
0.1345601E+01  0.2495441E+00  0.1347947E+01
0.1349996E+01  0.1827855E+00  0.1349636E+01
0.1475238E+01  0.9618066E-01  0.1458366E+01
0.1487372E+01  0.4556180E+00  0.1484558E+01
0.1432024E+01  0.3509343E+00  0.1431570E+01
0.1619231E+01  0.5383449E+00  0.1606374E+01
0.1532505E+01  0.4233173E+00  0.1526696E+01
0.1547332E+01  0.4788657E+00  0.1540663E+01
0.1627786E+01  0.4750493E+00  0.1614912E+01
0.1750658E+01  0.4911384E+00  0.1726019E+01
0.1783313E+01  0.5336292E+00  0.1754532E+01
0.1744147E+01  0.5299352E+00  0.1719106E+01
0.1772978E+01  0.5077787E+00  0.1745484E+01
0.1739682E+01  0.5092411E+00  0.1715374E+01
0.1715917E+01  0.5251974E+00  0.1693807E+01
0.1809547E+01  0.4999146E+00  0.1778165E+01
0.1486188E+01  0.5335558E+00  0.1483460E+01
0.1695320E+01  0.5058771E+00  0.1675735E+01
0.1793562E+01  0.5145404E+00  0.1763664E+01
0.1827482E+01  0.5355643E+00  0.1794746E+01
0.1805457E+01  0.5332234E+00  0.1774520E+01
0.1812320E+01  0.5734372E+00  0.1781121E+01
0.1794794E+01  0.5557356E+00  0.1765103E+01
0.1637325E+01  0.5533192E+00  0.1622782E+01
0.1761146E+01  0.5591762E+00  0.1734537E+01
0.1789115E+01  0.5788851E+00  0.1759745E+01
0.1693317E+01  0.6123782E+00  0.1674329E+01
0.1522396E+01  0.5359490E+00  0.1517368E+01
0.1814654E+01  0.6254783E+00  0.1783286E+01
0.1726166E+01  0.5505978E+00  0.1702669E+01
0.1691322E+01  0.5307786E+00  0.1672017E+01
0.1516987E+01  0.5143680E+00  0.1512528E+01
0.1661909E+01  0.5147686E+00  0.1645095E+01
0.1761865E+01  0.6508066E+00  0.1735618E+01
0.1692174E+01  0.5698207E+00  0.1672859E+01
0.1780214E+01  0.6037461E+00  0.1752050E+01
[...]
POINT_DATA    3280
SCALARS hauteur float
LOOKUP_TABLE DEFAULT
       2.2760870E-02
       1.1063394E-04
       2.6584057E-04
       2.2919376E-02
       1.1952260E-02
       1.1839671E-02
       2.6722892E-02
       3.5870811E-03
       1.3310797E-02
       2.5293395E-02
       2.5147889E-02
       2.1900790E-02
       2.2044710E-02
       2.2399717E-02
       2.3624169E-02
       3.3084364E-04
       2.2328901E-02
       2.4460480E-02
       1.4775937E-02
       2.0256060E-02
       2.3690212E-02
       2.3451795E-02
       2.5489274E-02
       2.4024789E-02
       2.4477086E-02
       2.4693509E-02
       2.3941323E-02
       2.0880564E-02
       2.6930700E-02
       2.4122949E-02
       2.6022893E-02
       2.4674067E-02
       2.5674486E-02
       2.6668585E-02
       1.9850601E-02
       2.2987956E-02
       2.2941636E-02
       2.0924601E-02
       1.9652317E-02
       2.4278015E-02
       2.1851194E-02
       1.9180399E-02
       1.8544510E-02
       2.0483086E-02
       1.6589395E-02
       1.8960285E-02
       2.4862513E-02
       1.7638487E-02
       1.9689129E-02
       2.2282860E-02
       2.0780784E-02
       2.1663915E-02
       1.8179251E-02
       2.6221043E-02
       2.5125076E-02
       2.6180382E-02
       2.2201446E-02
       1.8007009E-02
       2.3144166E-02
       1.6675397E-02
       2.0327718E-02
       1.9346923E-02
       2.2084233E-02
       1.4457462E-02
       2.1003094E-02
       2.0947624E-02
       1.8904424E-02
       3.8737357E-04
       2.5959500E-02
       1.4796008E-02
       2.2804031E-02
       1.6193206E-02
       1.5105200E-02
       1.9664945E-02
       1.0369336E-02
       2.5400260E-02
       2.6608690E-02
       2.7894301E-02
       2.7051410E-02
       2.6856814E-02
       2.8062740E-02
       2.7307292E-02
       2.7462227E-02
       2.7267885E-02
       2.7808830E-02
       2.6295066E-02
       2.8630101E-02
       2.5246796E-02
       2.3937861E-02
       2.4362074E-02
       2.5626550E-02
       2.8113718E-02
       2.9502861E-02
       2.8682919E-02
       2.8887744E-02
       2.4050036E-02
       1.8157895E-02
       1.7231248E-02
       1.6873959E-02
       1.4177464E-02
       1.6455559E-02
       1.5340180E-02
       1.1707948E-02
       1.8747051E-02
       1.9724907E-02
       2.0105747E-02
       2.2005731E-02
       1.9654327E-02
       1.8301354E-02
       2.1145485E-02
       1.5158906E-02
       1.6720234E-02
       1.4808695E-02
       1.8206650E-02
       2.0856374E-02
       2.2060187E-02
       1.0708157E-02
       2.2924545E-02
       2.1539303E-02
       1.2788743E-02
       1.1755042E-02
       1.2096487E-02
       1.2966645E-02
       2.2289411E-02
       2.3438002E-02
       2.4622467E-02
       2.0383372E-02
       1.3458632E-02
       1.3130685E-02
       1.1525421E-02
       8.1603461E-03
       2.2673071E-04
       1.0240428E-02
       9.8547992E-03
       9.2611397E-03
       5.0771939E-03
       6.9617908E-03
       1.8147022E-02
       8.2208160E-03
       5.7131551E-03
       2.8693332E-03
       1.1129866E-02
       1.2692303E-02
       9.0899479E-03
       1.1221977E-02
       1.2516008E-02
       1.4711035E-02
       9.9314102E-03
       2.4972377E-02
       2.7778215E-02
       2.6287991E-02
       2.8294586E-02
       2.7173380E-02
       2.7783433E-02
       2.8859314E-02
       2.6603626E-02
       1.7597725E-02
       1.4448188E-02
       2.3540582E-02
       2.7359123E-02
       2.0127076E-02
       1.2313172E-03
       2.6861056E-02
       2.8721741E-02
       2.3733493E-02
       7.7973150E-03
       1.7303001E-02
       1.7998787E-02
       1.5978254E-02
       1.9707318E-02
       2.1230231E-02
       2.5209711E-02
       2.7943024E-02
       2.9147357E-02
       8.4872361E-03
       4.5242340E-03
       2.3090527E-02
       1.2004975E-02
       6.4924656E-03
       1.4522044E-02
       8.7938970E-03
       6.2463540E-03
       1.4911205E-02
       1.3460018E-02
       2.4585280E-02
       2.8717428E-02
       2.8438000E-02
       2.9929726E-02
       2.8854905E-02
       2.9167698E-02
       2.6550114E-02
       1.2534896E-02
       2.6834562E-02
       2.8090891E-02
       1.9419484E-02
       2.4739709E-02
       2.4174591E-02
       1.9573233E-02
       1.0257764E-02
       6.7666411E-03
       9.7255149E-03
       7.8483181E-03
       1.0369604E-02
       1.2094581E-02
       4.6890991E-03
       2.6896587E-02
       1.4208119E-02
       5.8542249E-03
       3.6919127E-03
       5.0519051E-03
       4.9272396E-03
       6.0852729E-03
       1.8094007E-02
       8.4968087E-03
       6.2935347E-03
       1.4765774E-02
       2.5318510E-02
       4.8041634E-03
       1.0911143E-02
       1.4409497E-02
       2.5779892E-02
       1.6313738E-02
       8.8725228E-03
       1.4415847E-02
       7.3219691E-03
       2.3110694E-02
       1.5910030E-02
       9.5089248E-03
       2.1966281E-02
       1.6195297E-02
       1.0816103E-02
       1.0181671E-02
       1.3024930E-02
       1.3065682E-02
       4.3333013E-03
       6.3091897E-03
       4.5195270E-04
       1.0368162E-02
       2.7091327E-03
       7.4752551E-03
       8.7071495E-03
       1.6059524E-02
       1.3196355E-02
       6.4123167E-03
       4.1702148E-03
       4.2527727E-03
       5.7048882E-03
       6.8909615E-03
       7.0215822E-03
       9.1890005E-03
       2.0340674E-02
       2.7071957E-02
       1.6401364E-02
       1.8333045E-02
       2.0658158E-02
       2.2133686E-02
       6.0049569E-03
       9.0524224E-03
       5.6890348E-03
       2.4966451E-03
       2.1753725E-03
       3.3757564E-03
       1.0541278E-02
       1.0325468E-02
       2.4737766E-03
       1.4872450E-02
       4.8003053E-03
       1.3632736E-02
       3.4879754E-03
       7.6745597E-04
       9.4915357E-03
       1.7902176E-02
       1.6679200E-02
       1.8733273E-02
       8.5963859E-03
       1.7713556E-02
       2.2338929E-02
       2.1439711E-02
       2.6102602E-02
       2.4637913E-02
       2.1756679E-02
       2.5482647E-02
       1.2534700E-02
       6.2554764E-03
       2.1769111E-02
       9.1997143E-03
       2.0818993E-02
       6.5462148E-03
       2.8280676E-02
       2.8505996E-02
       2.9278851E-02
       2.9751578E-02
       3.0073792E-02
       2.6499465E-02
       2.5641817E-02
       2.7657347E-02
       2.5121380E-02
       2.5390121E-02
       2.1278242E-02
       2.4289099E-02
       1.7672186E-02
       2.3954131E-02
       2.3008026E-02
       5.9755281E-03
       4.0096635E-03
       3.2352406E-03
       8.2052714E-03
       1.6541529E-02
       3.6388444E-03
       5.3840974E-03
       1.8466748E-02
       2.1509476E-02
       5.4922593E-03
       1.3758092E-02
       5.8410164E-03
       1.2126612E-02
       9.4407190E-03
       1.1264007E-02
       1.1223821E-02
       5.6267169E-03
       3.0233438E-03
       1.1042945E-04
       7.4776727E-03
       1.6942904E-03
       1.0299674E-02
       6.8076322E-03
       1.7287574E-02
       4.1083041E-04
       3.8087354E-03
       9.3123776E-03
       8.2811340E-03
       1.5061042E-02
       1.2423540E-02
       3.2547921E-03
       2.0253444E-02
       1.5273453E-03
       1.2513828E-02
       2.3376314E-02
       1.3513544E-03
       7.0456275E-04
       1.4703019E-02
       1.4630393E-02
       1.5835927E-02
       1.5856013E-02
       7.8629441E-03
       1.7041871E-02
       1.6019497E-02
       1.6479184E-02
       1.8462937E-02
       1.5427927E-02
       1.0321653E-02
       1.3954711E-02
       1.4700429E-02
       4.8299390E-04
       3.9119849E-03
       4.0560495E-03
       5.9472547E-03
       3.4370842E-03
       3.5107030E-03
       1.5710463E-03
       1.5256368E-03
       9.8656636E-04
       1.6461252E-02
       1.8529318E-02
       1.6304342E-02
       1.3341155E-02
       1.7409376E-02
       1.1142707E-02
       4.9882237E-03
       9.4067758E-03
       5.6078441E-03
       4.3085245E-03
       2.9766324E-03
       4.4636029E-03
       5.4554697E-03
       2.7835726E-02
       3.1085840E-02
       2.9400982E-02
       3.0009563E-02
       3.0922026E-02
       2.9614050E-02
       3.0477530E-02
       3.1454116E-02
       3.1151430E-02
       3.2263397E-02
       3.0670017E-02
       3.1764458E-02
       3.2791270E-02
       3.2206773E-02
       3.1893036E-02
       3.1997751E-02
       3.1107432E-02
       2.9822355E-02
       2.9349305E-02
       2.9219401E-02
       2.9158334E-02
       3.0121605E-02
       3.0708026E-02
       3.0830257E-02
       2.7559604E-02
       2.4716107E-02
       2.7784919E-02
       2.6406527E-02
       2.4959323E-02
       2.9952958E-02
       3.1105235E-02
       3.0761604E-02
       3.0397857E-02
       3.0365592E-02
       3.0959651E-02
       3.2268704E-02
       3.1692148E-02
       3.0184834E-02
       3.1589507E-02
       3.2172847E-02
       3.2326946E-02
       3.1655194E-02
       3.0631394E-02
       3.1004049E-02
       3.3594109E-02
       3.1548616E-02
       3.3383289E-02
       3.2915255E-02
       3.2851737E-02
       3.2880072E-02
       3.3884153E-02
       3.3314608E-02
       3.3155582E-02
       3.2851462E-02
       3.3325973E-02
       3.4370286E-02
       3.3797589E-02
       3.4120862E-02
       3.3334052E-02
       3.5128906E-02
       3.2914739E-02
       3.4446984E-02
       3.2007022E-02
       3.3876065E-02
       3.4707784E-02
       3.5438562E-02
       3.5255802E-02
       3.6240264E-02
       3.5731645E-02
       3.5111949E-02
       3.4167318E-02
       3.2669643E-02
       3.3360833E-02
       3.5780692E-02
       3.5950400E-02
       3.6070413E-02
       3.6882778E-02
       3.6556444E-02
       3.4902402E-02
       3.6460236E-02
       3.2110500E-02
       3.3172195E-02
       3.6399541E-02
       3.6345124E-02
       3.5735241E-02
       3.6334472E-02
       3.6737001E-02
       3.1273310E-02
       3.3138142E-02
       3.7355191E-02
       3.2551799E-02
       3.4219592E-02
       3.6969361E-02
       3.7232616E-02
       3.1358167E-02
       3.3789238E-02
       3.4363858E-02
       3.6846752E-02
       3.7256702E-02
       3.7194681E-02
       3.8078835E-02
       3.7753339E-02
       3.1929166E-02
       3.1284657E-02
       3.2217893E-02
       2.9745288E-02
       3.2313107E-02
       3.0546025E-02
       3.0599494E-02
       3.0421519E-02
       3.7824693E-02
       3.8795778E-02
       2.9488451E-02
       3.7590092E-02
       3.8120451E-02
       3.7542289E-02
       3.8365312E-02
       2.8677853E-02
       2.9944493E-02
       2.9267897E-02
       2.8224659E-02
       2.8934746E-02
       2.9134609E-02
       3.7904664E-02
       3.7412462E-02
       3.8362872E-02
       3.7547533E-02
       2.8074632E-02
       2.7397607E-02
       3.7086953E-02
       3.8843824E-02
       3.8126507E-02
       3.6402812E-02
       2.7697504E-02
       3.8645886E-02
       3.6953923E-02
       3.6304802E-02
       2.8592786E-02
       3.8086783E-02
       3.8723653E-02
       3.7321388E-02
       3.9661166E-02
       3.7421966E-02
       3.9311412E-02
       3.9222815E-02
       3.9237898E-02
       3.9501790E-02
       3.9205363E-02
       3.8771050E-02
       3.8650414E-02
       4.0036656E-02
       3.9636631E-02
       4.0222494E-02
       3.9694359E-02
       3.9932178E-02
       2.7724044E-02
       4.4047304E-03
       2.8178097E-03
       1.1869117E-03
       2.0366544E-03
       1.2628618E-03
       1.8375602E-03
       1.6785294E-03
       2.4077139E-03
       2.7266184E-03
       2.3403738E-03
       3.1783216E-03
       2.1408355E-04
       3.4548878E-04
       1.4470420E-03
       1.6427517E-03
       1.0375581E-03
       6.0712225E-04
       1.7327164E-03
       4.1559034E-04
       4.3825325E-04
       1.1190379E-03
       7.1652231E-04
       4.1851073E-04
       6.5755584E-04
       2.1944006E-04
       2.6601527E-02
       1.6792893E-02
       1.5502458E-02
       1.8700827E-02
       1.6975858E-02
       1.7598858E-02
       1.9342210E-02
       2.4698490E-02
       2.2404336E-02
       2.3889991E-02
       2.5151697E-02
       2.2805330E-02
       2.3828128E-02
       2.1353103E-02
       2.4158549E-02
       2.5350397E-02
       2.4527290E-02
       2.6353178E-02
       2.7260617E-02
       2.6264123E-02
       2.4820244E-02
       2.2535791E-02
       2.3694573E-02
       2.2706253E-02
       2.3489509E-02
       2.4700254E-02
       2.3749209E-02
       2.2550575E-02
       2.3633885E-02
       2.2953008E-02
       2.3559565E-02
       2.0819678E-02
       2.3498557E-02
       2.1338017E-02
       2.4927616E-02
       2.2461904E-02
       2.4542070E-02
       2.5694677E-02
       2.1979452E-02
       2.2340424E-02
       2.3553273E-02
       2.5760884E-02
       2.6740103E-02
       2.5983276E-02
       2.4929422E-02
       2.7554308E-02
       2.5612538E-02
       2.6190811E-02
       2.5628778E-02
       2.4534734E-02
       2.6691330E-02
       2.6606118E-02
       2.8243619E-02
       2.6746408E-02
       2.7481232E-02
       2.9110791E-02
       2.8335248E-02
       2.9642582E-02
       7.8793340E-03
       1.0170102E-02
       1.2149732E-02
       1.3223359E-02
       1.2787025E-02
       1.1729250E-02
       4.0513515E-03
       1.0306365E-03
       4.5089220E-03
       1.9553757E-03
       1.3909334E-02
       1.8931128E-02
       1.1989356E-02
       1.0469648E-02
       1.6763243E-02
       1.7320114E-02
       1.5175353E-02
       1.2582164E-02
       1.3033110E-02
       1.4491030E-02
       1.4919486E-02
       1.6909639E-02
       1.0806093E-02
       8.7056562E-03
       1.0976841E-02
       1.0819013E-02
       8.3648854E-03
       9.4569128E-03
       1.0939494E-02
       5.2901505E-03
       5.1992765E-03
       7.4158800E-03
       5.1247475E-03
       6.5845178E-03
       6.6491141E-03
       1.2064167E-02
       5.1119532E-03
       7.1617688E-03
       4.1059732E-03
       1.9784429E-03
       1.9990208E-03
       1.1858844E-03
       1.9798461E-02
       1.9280742E-02
       1.8930655E-02
       5.8267928E-03
       6.8237836E-03
       7.5893854E-03
       5.0054800E-03
       5.1848973E-03
       3.4682505E-03
       2.7847238E-02
       2.7005080E-02
       2.8794622E-02
       2.6980656E-02
       2.8971605E-02
       2.5243265E-02
       3.0163764E-02
       2.4799132E-02
       3.1269156E-02
       2.9953057E-02
       2.6930819E-02
       2.8207436E-02
       1.7064947E-02
       3.0799702E-02
       2.1912820E-02
       2.2202190E-02
       1.0515898E-02
       2.0821521E-02
       3.1961164E-02
       1.4290969E-02
       1.1159132E-02
       1.4514747E-02
       1.4193216E-02
       3.0444087E-02
       3.1899183E-02
       2.4166749E-02
       2.2784764E-02
       3.1513921E-02
       3.3572095E-02
       3.3735730E-02
       3.1471055E-02
       3.3702279E-02
       3.5428943E-02
       3.4949745E-02
       3.7716671E-02
       3.6590115E-02
       3.8472387E-02
       3.8033254E-02
       3.8607014E-02
       3.7963603E-02
       3.8602885E-02
       3.9655892E-02
       3.9135685E-02
       3.9143140E-02
       3.9276279E-02
       3.6450934E-02
       3.7065910E-02
       3.5526262E-02
       3.6792835E-02
       3.9046073E-02
       3.9211589E-02
       3.8519273E-02
       3.8282906E-02
       3.8608103E-02
       3.9926436E-02
       4.0950153E-02
       2.4800483E-03
       4.4502404E-04
       8.5712705E-04
       3.0819687E-04
       1.9603395E-02
       2.0778173E-02
       1.8246568E-02
       1.9711319E-02
       2.0104075E-02
       2.6429641E-02
       2.8558889E-02
       2.8118651E-02
       2.1235035E-02
       1.9936024E-02
       1.9527567E-02
       2.5565239E-02
       2.4678761E-02
       2.1878089E-02
       2.8190408E-02
       3.0601513E-02
       1.6242273E-03
       8.2296541E-04
       2.5559348E-03
       1.1472406E-03
       1.5519863E-03
       4.3174910E-03
       3.6314646E-04
       1.4344337E-03
       1.4208825E-04
       2.8974876E-04
       3.8980076E-04
       5.9623786E-04
       2.5094384E-04
       6.7308706E-04
       1.7238976E-04
       6.6434697E-03
       8.3559901E-03
       2.1091861E-03
       3.0101481E-03
       1.7070738E-02
       1.7828806E-02
       1.9695077E-02
       1.9793460E-02
       2.0598283E-02
       2.1640138E-02
       2.2170539E-02
       1.0214484E-02
       9.5763141E-03
       1.3704278E-02
       1.4762228E-02
       4.8250747E-03
       1.1766837E-02
       1.2951763E-02
       2.8585931E-03
       1.1966797E-02
       1.4670562E-02
       1.6326451E-02
       1.6295037E-02
       1.7510782E-02
       1.5986436E-02
       7.2740247E-04
       1.7873176E-02
       1.4085494E-02
       1.7478903E-02
       1.3017822E-02
       1.3275999E-02
       1.2586684E-02
       5.8624716E-03
       9.4955815E-03
       7.3358511E-03
       8.6087731E-03
       7.0820795E-03
       3.1105903E-03
       1.2595903E-03
       1.6949530E-02
       1.6093854E-02
       1.8407676E-02
       8.5459686E-03
       8.7213306E-03
       7.3646790E-03
       1.0914320E-02
       9.4731728E-03
       8.3976861E-03
       1.3122896E-02
       4.0249618E-03
       1.1903832E-03
       8.2067487E-04
       2.2240146E-02
       1.7588219E-02
       1.1868714E-02
       1.4040895E-02
       1.1374085E-02
       1.6303390E-02
       1.8751583E-02
       1.7662253E-02
       3.2774197E-02
       3.4779934E-02
       3.4853866E-02
       3.5089989E-02
       3.5041695E-02
       3.5496335E-02
       3.4388672E-02
       3.4221703E-02
       3.4869135E-02
       3.4210460E-02
       3.7750331E-02
       3.7860691E-02
       4.2958351E-02
       3.8006231E-02
       3.6218106E-02
       4.0443422E-02
       3.9665531E-02
       4.0463101E-02
       3.9711397E-02
       3.8357493E-02
       4.1576539E-02
       3.3522870E-02
       4.1130633E-02
       4.2317351E-02
       3.6480226E-02
       3.2536338E-02
       4.2264894E-02
       4.1870986E-02
       4.0010520E-02
       4.0271650E-02
       4.0527872E-02
       3.3867459E-02
       4.1336856E-02
       3.6580161E-02
       4.0905229E-02
       3.5322412E-02
       4.1930351E-02
       4.0689381E-02
       4.1408315E-02
       4.1048357E-02
       4.1533313E-02
       4.0159692E-02
       4.2080713E-02
       3.8318795E-02
       4.1787269E-02
       3.7913188E-02
       3.7060999E-02
       4.1523972E-02
       4.2154839E-02
       3.8466853E-02
       3.7065233E-02
       1.8206724E-02
       4.2659457E-02
       1.5617320E-02
       4.3059942E-02
       3.8807545E-02
       4.2762640E-02
       3.5119271E-02
       3.4016907E-02
       4.2856438E-02
       4.3252029E-02
       4.3254138E-02
       4.3894664E-02
       4.2572882E-02
       4.2422404E-02
       3.7968616E-02
       3.6006742E-02
       3.7526887E-02
       3.5550984E-02
       3.4955739E-02
       4.0834684E-02
       3.6492380E-02
       3.7481717E-02
       3.4538459E-02
       3.5132655E-02
       3.6662976E-02
       4.4594059E-02
       3.9018958E-02
       4.1685461E-02
       3.6065608E-02
       4.1447663E-02
       3.6534392E-02
       3.5924884E-02
       3.4907605E-02
       3.4061336E-02
       3.5415504E-02
       3.5894822E-02
       3.6039415E-02
       3.5672158E-02
       3.5182874E-02
       3.5614677E-02
       3.4680528E-02
       3.5556759E-02
       3.3955388E-02
       3.3662600E-02
       3.4309754E-02
       3.3600003E-02
       3.4332761E-02
       3.4966774E-02
       3.4510492E-02
       3.3755203E-02
       3.3018002E-02
       3.2810670E-02
       3.2660634E-02
       3.1599914E-02
       3.3366469E-02
       3.3656036E-02
       3.7030191E-02
       3.8986665E-02
       3.8081896E-02
       3.8438311E-02
       3.9695639E-02
       4.0593796E-02
       4.0314943E-02
       4.0579759E-02
       4.0334860E-02
       3.9875622E-02
       4.0722562E-02
       4.0200724E-02
       4.1307333E-02
       4.0234229E-02
       4.1192293E-02
       4.0859460E-02
       4.1638905E-02
       4.0570663E-02
       4.0674132E-02
       4.0613244E-02
       3.9757346E-02
       4.1055775E-02
       4.0235470E-02
       4.0050007E-02
       4.0849337E-02
       4.0914630E-02