# vtk DataFile Version 3.0
# Solution du M1 TR
ASCII
DATASET UNSTRUCTURED_GRID
POINTS   3280  float
0.0000000E+00  0.0000000E+00  0.2817318E-01
0.2000000E+01  0.0000000E+00  0.1960192E+01
0.2000000E+01  0.1000000E+01  0.1960321E+01
0.0000000E+00  0.1000000E+01  0.2804811E-01
0.1000000E+01  0.0000000E+00  0.9907908E+00
0.1000000E+01  0.1000000E+01  0.9906830E+00
0.1500000E+01  0.5000000E+00  0.1497432E+01
0.1500000E+01  0.0000000E+00  0.1474494E+01
0.1723284E+01  0.3570951E+00  0.1705513E+01
0.1500000E+01  0.2500000E+00  0.1495588E+01
0.1515103E+01  0.2763186E+00  0.1510458E+01
0.1594866E+01  0.2826386E+00  0.1586101E+01
0.1562500E+01  0.1875000E+00  0.1553829E+01
0.1534357E+01  0.1819434E+00  0.1526462E+01
0.1561083E+01  0.3343258E+00  0.1554496E+01
0.1750000E+01  0.0000000E+00  0.1715559E+01
0.1503267E+01  0.1622339E+00  0.1495844E+01
0.1514910E+01  0.2261192E+00  0.1509386E+01
0.1610795E+01  0.1290247E+00  0.1594929E+01
0.1539062E+01  0.1536458E+00  0.1529110E+01
0.1510772E+01  0.1982718E+00  0.1504524E+01
0.1541862E+01  0.2179813E+00  0.1534917E+01
0.1475030E+01  0.2178147E+00  0.1471176E+01
0.1539206E+01  0.2578835E+00  0.1533045E+01
0.1521085E+01  0.2465697E+00  0.1515562E+01
0.1496499E+01  0.2146241E+00  0.1491472E+01
0.1481433E+01  0.1870688E+00  0.1475929E+01
0.1586261E+01  0.1960616E+00  0.1576275E+01
0.1460896E+01  0.2899333E+00  0.1458926E+01
0.1542195E+01  0.2867649E+00  0.1536221E+01
0.1486080E+01  0.2754813E+00  0.1482751E+01
0.1536278E+01  0.3247610E+00  0.1531035E+01
0.1510131E+01  0.3295675E+00  0.1506287E+01
0.1455545E+01  0.2514402E+00  0.1453287E+01
0.1610995E+01  0.1909452E+00  0.1599845E+01
0.1564462E+01  0.2395252E+00  0.1556847E+01
0.1571524E+01  0.3026484E+00  0.1564099E+01
0.1613657E+01  0.2555806E+00  0.1603716E+01
0.1633998E+01  0.2714643E+00  0.1622781E+01
0.1534973E+01  0.3650914E+00  0.1529579E+01
0.1583157E+01  0.2286349E+00  0.1574203E+01
0.1586501E+01  0.1581416E+00  0.1574837E+01
0.1651985E+01  0.2274641E+00  0.1639451E+01
0.1619170E+01  0.2936434E+00  0.1608908E+01
0.1678889E+01  0.2641389E+00  0.1664630E+01
0.1642286E+01  0.2930521E+00  0.1630474E+01
0.1526415E+01  0.3446283E+00  0.1521612E+01
0.1662420E+01  0.3044259E+00  0.1649293E+01
0.1636786E+01  0.2469276E+00  0.1625438E+01
0.1588953E+01  0.3366240E+00  0.1580763E+01
0.1616427E+01  0.3314099E+00  0.1606522E+01
0.1598305E+01  0.3102698E+00  0.1589382E+01
0.1655410E+01  0.2614708E+00  0.1642730E+01
0.1487553E+01  0.3072167E+00  0.1484536E+01
0.1520126E+01  0.3036443E+00  0.1515517E+01
0.1477894E+01  0.2544664E+00  0.1474767E+01
0.1567847E+01  0.2133479E+00  0.1559324E+01
0.1663947E+01  0.3299725E+00  0.1651013E+01
0.1567022E+01  0.2696000E+00  0.1559708E+01
0.1678598E+01  0.3509559E+00  0.1664361E+01
0.1611933E+01  0.3827205E+00  0.1601948E+01
0.1640491E+01  0.3197373E+00  0.1629028E+01
0.1588015E+01  0.2526666E+00  0.1579372E+01
0.1708471E+01  0.3144917E+00  0.1691942E+01
0.1606944E+01  0.3564315E+00  0.1597472E+01
0.1604614E+01  0.2314093E+00  0.1594653E+01
0.1643491E+01  0.3631133E+00  0.1631687E+01
0.2000000E+01  0.5000000E+00  0.1960489E+01
0.1494727E+01  0.3621796E+00  0.1491505E+01
0.1701807E+01  0.3477237E+00  0.1685658E+01
0.1572156E+01  0.3701847E+00  0.1564823E+01
0.1688392E+01  0.3285111E+00  0.1673611E+01
0.1695932E+01  0.3904821E+00  0.1680189E+01
0.1636337E+01  0.3418163E+00  0.1625223E+01
0.1505941E+01  0.9448485E-01  0.1487374E+01
0.1423727E+01  0.1910920E+00  0.1420732E+01
0.1481447E+01  0.3359634E+00  0.1478997E+01
0.1441613E+01  0.3726133E+00  0.1441176E+01
0.1466699E+01  0.3599060E+00  0.1464995E+01
0.1476682E+01  0.4107296E+00  0.1474654E+01
0.1434448E+01  0.3273535E+00  0.1434202E+01
0.1464523E+01  0.3867258E+00  0.1463117E+01
0.1456903E+01  0.3373583E+00  0.1455708E+01
0.1454188E+01  0.3132491E+00  0.1452786E+01
0.1424069E+01  0.2919612E+00  0.1423669E+01
0.1490969E+01  0.3884111E+00  0.1488150E+01
0.1428051E+01  0.4202828E+00  0.1428548E+01
0.1513790E+01  0.3782958E+00  0.1509618E+01
0.1547789E+01  0.4092466E+00  0.1541949E+01
0.1535154E+01  0.3889763E+00  0.1529865E+01
0.1512699E+01  0.4170463E+00  0.1508911E+01
0.1441554E+01  0.3983607E+00  0.1441326E+01
0.1395941E+01  0.3853832E+00  0.1397845E+01
0.1420578E+01  0.3854393E+00  0.1421260E+01
0.1408336E+01  0.3518173E+00  0.1409406E+01
0.1549967E+01  0.3074339E+00  0.1543881E+01
0.1651639E+01  0.4114272E+00  0.1639338E+01
0.1668616E+01  0.3788978E+00  0.1655034E+01
0.1674624E+01  0.4027285E+00  0.1660778E+01
0.1706988E+01  0.4343785E+00  0.1690654E+01
0.1673984E+01  0.4357547E+00  0.1660081E+01
0.1695270E+01  0.4139894E+00  0.1679902E+01
0.1737273E+01  0.4034108E+00  0.1718049E+01
0.1645630E+01  0.3875965E+00  0.1633769E+01
0.1625874E+01  0.4052508E+00  0.1615224E+01
0.1627808E+01  0.4540126E+00  0.1617602E+01
0.1587158E+01  0.4136289E+00  0.1578994E+01
0.1633718E+01  0.4293591E+00  0.1622966E+01
0.1651607E+01  0.4466828E+00  0.1639635E+01
0.1605650E+01  0.4356658E+00  0.1596585E+01
0.1682168E+01  0.4808869E+00  0.1667594E+01
0.1671711E+01  0.4594749E+00  0.1658338E+01
0.1698428E+01  0.4596870E+00  0.1682991E+01
0.1646221E+01  0.4851828E+00  0.1634594E+01
0.1607747E+01  0.4151289E+00  0.1598315E+01
0.1584205E+01  0.4841185E+00  0.1576577E+01
0.1747573E+01  0.4622079E+00  0.1727568E+01
0.1568396E+01  0.4481495E+00  0.1561505E+01
0.1601760E+01  0.4629165E+00  0.1593230E+01
0.1723356E+01  0.4540167E+00  0.1705683E+01
0.1732897E+01  0.4294241E+00  0.1713981E+01
0.1722218E+01  0.4972746E+00  0.1704402E+01
0.1715121E+01  0.4754441E+00  0.1698039E+01
0.1584567E+01  0.4345797E+00  0.1576797E+01
0.1563465E+01  0.4258523E+00  0.1556959E+01
0.1534166E+01  0.4440258E+00  0.1529228E+01
0.1615090E+01  0.4918227E+00  0.1605702E+01
0.1717469E+01  0.4134541E+00  0.1700147E+01
0.1718488E+01  0.3909170E+00  0.1700753E+01
0.1741353E+01  0.3769080E+00  0.1721745E+01
0.1781199E+01  0.4241746E+00  0.1757567E+01
0.2000000E+01  0.2500000E+00  0.1960355E+01
0.1756308E+01  0.4199875E+00  0.1735397E+01
0.1762447E+01  0.3937207E+00  0.1740907E+01
0.1765097E+01  0.4438197E+00  0.1743165E+01
0.1807974E+01  0.4625425E+00  0.1780004E+01
0.1789176E+01  0.4471344E+00  0.1764120E+01
0.1514158E+01  0.1287364E+00  0.1502742E+01
0.1777674E+01  0.4803377E+00  0.1754420E+01
0.1811145E+01  0.4395021E+00  0.1783946E+01
0.1850404E+01  0.4566449E+00  0.1818063E+01
0.1748483E+01  0.3522599E+00  0.1728267E+01
0.1731235E+01  0.3304535E+00  0.1712768E+01
0.1777870E+01  0.3654441E+00  0.1755102E+01
0.1748149E+01  0.2821176E+00  0.1728085E+01
0.1732875E+01  0.3039003E+00  0.1714238E+01
0.1708314E+01  0.2807181E+00  0.1692015E+01
0.1767650E+01  0.3193756E+00  0.1745843E+01
0.1372661E+01  0.1704076E+00  0.1370231E+01
0.1411157E+01  0.2494459E+00  0.1410808E+01
0.1448000E+01  0.2246098E+00  0.1445430E+01
0.1360382E+01  0.2278583E+00  0.1361482E+01
0.1433680E+01  0.2431125E+00  0.1432303E+01
0.1388814E+01  0.2314916E+00  0.1388864E+01
0.1314549E+01  0.2124991E+00  0.1317068E+01
0.1404157E+01  0.2007613E+00  0.1402713E+01
0.1415035E+01  0.1072182E+00  0.1404716E+01
0.1520299E+01  0.1091515E+00  0.1505410E+01
0.1459010E+01  0.1690672E+00  0.1453544E+01
0.1436337E+01  0.2690050E+00  0.1435173E+01
0.1443480E+01  0.1263360E+00  0.1435057E+01
0.1625000E+01  0.0000000E+00  0.1594453E+01
0.1414954E+01  0.2197329E+00  0.1413581E+01
0.1335299E+01  0.2266424E+00  0.1337297E+01
0.1396801E+01  0.1612344E+00  0.1392715E+01
0.1792033E+01  0.3934232E+00  0.1767657E+01
0.1541310E+01  0.1264947E+00  0.1528660E+01
0.1483859E+01  0.1256971E+00  0.1472745E+01
0.1500341E+01  0.1139400E+00  0.1487151E+01
0.1498380E+01  0.1421255E+00  0.1488622E+01
0.1478242E+01  0.1468909E+00  0.1470239E+01
0.1453147E+01  0.1972183E+00  0.1449401E+01
0.1348833E+01  0.2067866E+00  0.1349790E+01
0.1368157E+01  0.2800764E+00  0.1370044E+01
0.1250000E+01  0.0000000E+00  0.1233085E+01
0.1496272E+01  0.2780308E-01  0.1471894E+01
0.1430228E+01  0.1622338E+00  0.1424891E+01
0.1544491E+01  0.1012427E+00  0.1526932E+01
0.1505524E+01  0.5428530E-01  0.1483112E+01
0.1576405E+01  0.1180891E+00  0.1560646E+01
0.1526885E+01  0.8834234E-01  0.1506548E+01
0.1558557E+01  0.6358195E-01  0.1535176E+01
0.1372206E+01  0.9428859E-01  0.1359941E+01
0.1414069E+01  0.8636887E-01  0.1399714E+01
0.1351230E+01  0.1581055E+00  0.1348837E+01
0.1371634E+01  0.2528708E+00  0.1372971E+01
0.1392978E+01  0.2694234E+00  0.1393669E+01
0.1321668E+01  0.2603105E+00  0.1325157E+01
0.1392566E+01  0.3027057E+00  0.1393761E+01
0.1345601E+01  0.2495441E+00  0.1347869E+01
0.1349996E+01  0.1827855E+00  0.1349552E+01
0.1475238E+01  0.9618066E-01  0.1459137E+01
0.1487372E+01  0.4556180E+00  0.1485122E+01
0.1432024E+01  0.3509343E+00  0.1431925E+01
0.1619231E+01  0.5383449E+00  0.1609406E+01
0.1532505E+01  0.4233173E+00  0.1527628E+01
0.1547332E+01  0.4788657E+00  0.1541902E+01
0.1627786E+01  0.4750493E+00  0.1617350E+01
0.1750658E+01  0.4911384E+00  0.1730317E+01
0.1783313E+01  0.5336292E+00  0.1758348E+01
0.1744147E+01  0.5299352E+00  0.1723664E+01
0.1772978E+01  0.5077787E+00  0.1749556E+01
0.1739682E+01  0.5092411E+00  0.1719877E+01
0.1715917E+01  0.5251974E+00  0.1698386E+01
0.1809547E+01  0.4999146E+00  0.1780956E+01
0.1486188E+01  0.5335558E+00  0.1483998E+01
0.1695320E+01  0.5058771E+00  0.1679961E+01
0.1793562E+01  0.5145404E+00  0.1767053E+01
0.1827482E+01  0.5355643E+00  0.1796916E+01
0.1805457E+01  0.5332234E+00  0.1777532E+01
0.1812320E+01  0.5734372E+00  0.1784091E+01
0.1794794E+01  0.5557356E+00  0.1768613E+01
0.1637325E+01  0.5533192E+00  0.1626278E+01
0.1761146E+01  0.5591762E+00  0.1738891E+01
0.1789115E+01  0.5788851E+00  0.1763372E+01
0.1693317E+01  0.6123782E+00  0.1678122E+01
0.1522396E+01  0.5359490E+00  0.1518358E+01
0.1814654E+01  0.6254783E+00  0.1785998E+01
0.1726166E+01  0.5505978E+00  0.1707363E+01
0.1691322E+01  0.5307786E+00  0.1676365E+01
0.1516987E+01  0.5143680E+00  0.1513378E+01
0.1661909E+01  0.5147686E+00  0.1649015E+01
0.1761865E+01  0.6508066E+00  0.1739388E+01
0.1692174E+01  0.5698207E+00  0.1677167E+01
0.1780214E+01  0.6037461E+00  0.1755956E+01
[...]
POINT_DATA    3280
SCALARS hauteur float
LOOKUP_TABLE DEFAULT
       2.8173177E-02
       5.8719209E-05
       1.8783262E-04
       2.8048114E-02
       1.0724264E-02
       1.0616403E-02
       2.7332271E-02
       4.3941888E-03
       1.6579915E-02
       2.5487694E-02
       2.5556289E-02
       2.3026312E-02
       2.2475435E-02
       2.2689688E-02
       2.4530933E-02
       4.4234241E-04
       2.2541498E-02
       2.4673427E-02
       1.6242416E-02
       2.0726732E-02
       2.3867442E-02
       2.3789928E-02
       2.5548430E-02
       2.4520872E-02
       2.4797014E-02
       2.4802750E-02
       2.4026000E-02
       2.1632773E-02
       2.7150519E-02
       2.4767410E-02
       2.6294422E-02
       2.5380147E-02
       2.6258298E-02
       2.6756390E-02
       2.0962857E-02
       2.3570187E-02
       2.3901506E-02
       2.2224011E-02
       2.1354466E-02
       2.5202576E-02
       2.2603017E-02
       1.9960069E-02
       2.0395693E-02
       2.2013562E-02
       1.9206455E-02
       2.0924228E-02
       2.5624620E-02
       2.0010610E-02
       2.1278243E-02
       2.3483327E-02
       2.2315823E-02
       2.2936855E-02
       2.0317435E-02
       2.6635018E-02
       2.5692264E-02
       2.6332440E-02
       2.2729517E-02
       2.0233638E-02
       2.3922085E-02
       1.9222664E-02
       2.2146387E-02
       2.1238060E-02
       2.3011234E-02
       1.7527336E-02
       2.2559672E-02
       2.2024392E-02
       2.0956833E-02
       3.5619327E-04
       2.6572879E-02
       1.7773760E-02
       2.4005991E-02
       1.8874484E-02
       1.8062371E-02
       2.1503155E-02
       1.1452052E-02
       2.5383794E-02
       2.7080011E-02
       2.8299728E-02
       2.7532489E-02
       2.7406458E-02
       2.8347929E-02
       2.7786740E-02
       2.7845920E-02
       2.7584930E-02
       2.7986051E-02
       2.6901519E-02
       2.8963553E-02
       2.6003505E-02
       2.5012703E-02
       2.5311613E-02
       2.6365406E-02
       2.8506338E-02
       2.9730464E-02
       2.8998786E-02
       2.9143407E-02
       2.4810546E-02
       2.0621923E-02
       1.9679182E-02
       1.9534145E-02
       1.7691911E-02
       1.9465189E-02
       1.8424504E-02
       1.5405488E-02
       2.0942097E-02
       2.1758747E-02
       2.2242301E-02
       2.3473190E-02
       2.1813551E-02
       2.0949613E-02
       2.2941264E-02
       1.8957399E-02
       1.9949243E-02
       1.8418749E-02
       2.1187444E-02
       2.2615832E-02
       2.3951073E-02
       1.4830771E-02
       2.4372376E-02
       2.3397748E-02
       1.6679248E-02
       1.5626234E-02
       1.6514106E-02
       1.7106011E-02
       2.3815168E-02
       2.4659000E-02
       2.5643252E-02
       2.2805897E-02
       1.6913219E-02
       1.6519965E-02
       1.5102985E-02
       1.1872603E-02
       2.2148550E-04
       1.4097906E-02
       1.3591317E-02
       1.3252133E-02
       8.0693751E-03
       1.0608997E-02
       1.8766445E-02
       1.2181350E-02
       8.9031671E-03
       4.5441935E-03
       1.4637858E-02
       1.6042323E-02
       1.2670860E-02
       1.4782460E-02
       1.5905220E-02
       1.7753885E-02
       1.3428029E-02
       2.4931411E-02
       2.7780961E-02
       2.6293103E-02
       2.8216864E-02
       2.7200998E-02
       2.7734390E-02
       2.8723104E-02
       2.6544908E-02
       1.7887077E-02
       1.5415221E-02
       2.3617433E-02
       2.7468037E-02
       2.0350460E-02
       1.8446360E-03
       2.6831761E-02
       2.8614287E-02
       2.3756521E-02
       1.1345325E-02
       1.8073198E-02
       1.8463763E-02
       1.6717398E-02
       2.0110575E-02
       2.1463754E-02
       2.5219430E-02
       2.7843917E-02
       2.9158485E-02
       8.0017136E-03
       5.4485253E-03
       2.3171760E-02
       1.3227885E-02
       7.5987205E-03
       1.5664699E-02
       1.0098716E-02
       7.6862695E-03
       1.5087326E-02
       1.3832505E-02
       2.4541909E-02
       2.8678897E-02
       2.8458199E-02
       2.9834331E-02
       2.8953322E-02
       2.9090342E-02
       2.6465705E-02
       1.3306222E-02
       2.7398197E-02
       2.8446098E-02
       2.2451870E-02
       2.5671350E-02
       2.5413681E-02
       2.2011104E-02
       1.4555942E-02
       1.0583016E-02
       1.4284003E-02
       1.1920286E-02
       1.4873222E-02
       1.6673531E-02
       7.4793533E-03
       2.7434537E-02
       1.8434163E-02
       9.2427176E-03
       5.8624319E-03
       8.0635608E-03
       7.8972893E-03
       9.5961237E-03
       2.1589838E-02
       1.2850230E-02
       9.9203253E-03
       1.8559249E-02
       2.6308474E-02
       7.5167543E-03
       1.5604843E-02
       1.8757645E-02
       2.6630055E-02
       2.0233852E-02
       1.2642663E-02
       1.8723845E-02
       1.1228243E-02
       2.4726069E-02
       2.0017676E-02
       1.3889241E-02
       2.4017804E-02
       1.8743154E-02
       1.5112712E-02
       1.4208300E-02
       1.6147927E-02
       1.5734752E-02
       6.5342924E-03
       8.1995586E-03
       3.5231061E-04
       1.2723817E-02
       4.0235660E-03
       1.0780857E-02
       1.2836296E-02
       1.8832971E-02
       1.6495728E-02
       9.7357424E-03
       6.6103992E-03
       6.7309158E-03
       8.7758185E-03
       1.0195633E-02
       1.0250923E-02
       1.2701975E-02
       2.0745206E-02
       2.6992563E-02
       1.7505084E-02
       1.9076992E-02
       2.1189010E-02
       2.2182696E-02
       7.6526586E-03
       1.0544841E-02
       7.1692047E-03
       3.3812582E-03
       3.2333668E-03
       4.5065278E-03
       1.2127131E-02
       1.2332175E-02
       3.7114095E-03
       1.6709909E-02
       6.5494724E-03
       1.5449045E-02
       4.8675951E-03
       1.1519249E-03
       1.1800909E-02
       1.9245755E-02
       1.8054682E-02
       1.9745719E-02
       9.5411620E-03
       1.8137337E-02
       2.2325182E-02
       2.1627085E-02
       2.5978885E-02
       2.4562473E-02
       2.1664649E-02
       2.5438457E-02
       1.3008314E-02
       6.4696731E-03
       2.1888208E-02
       9.9118118E-03
       2.0961686E-02
       7.4755319E-03
       2.8388637E-02
       2.8695752E-02
       2.9430244E-02
       2.9930505E-02
       3.0131588E-02
       2.7112160E-02
       2.6420637E-02
       2.8105768E-02
       2.6073693E-02
       2.6303119E-02
       2.3563791E-02
       2.5552717E-02
       2.1301569E-02
       2.5170661E-02
       2.4547569E-02
       9.3339828E-03
       6.4160559E-03
       5.1027914E-03
       1.2492202E-02
       2.0135633E-02
       5.5779772E-03
       8.4986751E-03
       2.1688641E-02
       2.3798544E-02
       7.7058528E-03
       1.7194264E-02
       8.5251816E-03
       1.6060848E-02
       1.2825765E-02
       1.4342725E-02
       1.4835346E-02
       8.5190728E-03
       4.3498804E-03
       1.5185877E-04
       1.0374737E-02
       2.4078704E-03
       1.3022365E-02
       1.0346221E-02
       2.0077681E-02
       4.2983841E-04
       6.0217204E-03
       1.2284174E-02
       1.0776114E-02
       1.7976265E-02
       1.6825428E-02
       4.2081447E-03
       2.2915032E-02
       2.1278900E-03
       1.4760148E-02
       2.4994726E-02
       1.8436673E-03
       8.7394161E-04
       1.7353029E-02
       1.6848965E-02
       1.8865556E-02
       1.9137742E-02
       9.8738767E-03
       1.8975346E-02
       1.7753413E-02
       1.8698679E-02
       2.0364534E-02
       1.7339743E-02
       1.2473124E-02
       1.5839666E-02
       1.7710552E-02
       6.3190108E-04
       6.2630654E-03
       6.3205697E-03
       8.9556944E-03
       4.7409703E-03
       4.5723568E-03
       2.2647481E-03
       2.3056173E-03
       1.4995690E-03
       1.8609143E-02
       2.0094204E-02
       1.6694403E-02
       1.3927498E-02
       1.7631681E-02
       1.1479939E-02
       5.5634879E-03
       9.9378716E-03
       5.9970274E-03
       5.0495579E-03
       3.8882847E-03
       5.5309884E-03
       6.7152288E-03
       2.7903861E-02
       3.1161351E-02
       2.9460901E-02
       3.0014145E-02
       3.0913900E-02
       2.9572852E-02
       3.0422927E-02
       3.1317313E-02
       3.1074095E-02
       3.2161239E-02
       3.0542615E-02
       3.1663734E-02
       3.2573536E-02
       3.2054869E-02
       3.1665730E-02
       3.1808608E-02
       3.0929084E-02
       2.9681474E-02
       2.9233339E-02
       2.9016021E-02
       2.8992496E-02
       2.9945610E-02
       3.0454618E-02
       3.0616468E-02
       2.7393816E-02
       2.4519149E-02
       2.7646124E-02
       2.6306377E-02
       2.4816480E-02
       3.0069358E-02
       3.1155763E-02
       3.0811611E-02
       3.0510140E-02
       3.0513256E-02
       3.1041476E-02
       3.2188288E-02
       3.1694180E-02
       3.0332926E-02
       3.1590738E-02
       3.2070292E-02
       3.2251460E-02
       3.1638013E-02
       3.0756187E-02
       3.1050556E-02
       3.3343623E-02
       3.1495525E-02
       3.3171464E-02
       3.2765113E-02
       3.2706276E-02
       3.2697362E-02
       3.3565597E-02
       3.3053854E-02
       3.2866138E-02
       3.2689391E-02
       3.3127931E-02
       3.4012480E-02
       3.3526945E-02
       3.3790712E-02
       3.2996672E-02
       3.4628423E-02
       3.2692813E-02
       3.4045460E-02
       3.1799132E-02
       3.3549504E-02
       3.4289870E-02
       3.4903523E-02
       3.4748700E-02
       3.5569226E-02
       3.5139939E-02
       3.4562727E-02
       3.3760767E-02
       3.2416898E-02
       3.3108942E-02
       3.5189648E-02
       3.5315882E-02
       3.5428757E-02
       3.6070010E-02
       3.5820694E-02
       3.4410037E-02
       3.5733068E-02
       3.1960429E-02
       3.2784938E-02
       3.5685469E-02
       3.5624103E-02
       3.5126544E-02
       3.5640521E-02
       3.5974425E-02
       3.1170505E-02
       3.2787688E-02
       3.6463139E-02
       3.2240056E-02
       3.3751253E-02
       3.6157347E-02
       3.6368257E-02
       3.1139150E-02
       3.3378008E-02
       3.3911962E-02
       3.6054866E-02
       3.6359298E-02
       3.6323655E-02
       3.7041219E-02
       3.6766310E-02
       3.1671394E-02
       3.1129331E-02
       3.1904344E-02
       2.9799037E-02
       3.1998081E-02
       3.0495216E-02
       3.0627409E-02
       3.0317523E-02
       3.6844011E-02
       3.7599431E-02
       2.9694221E-02
       3.6645966E-02
       3.7084753E-02
       3.6531928E-02
       3.7261823E-02
       2.8977613E-02
       3.0024429E-02
       2.9459466E-02
       2.8550481E-02
       2.9135555E-02
       2.9193708E-02
       3.6908599E-02
       3.6504481E-02
       3.7281677E-02
       3.6577023E-02
       2.8455873E-02
       2.7888162E-02
       3.6227113E-02
       3.7651276E-02
       3.7042512E-02
       3.5588945E-02
       2.8087211E-02
       3.7416298E-02
       3.6090423E-02
       3.5553508E-02
       2.8795439E-02
       3.6968261E-02
       3.7514374E-02
       3.6233130E-02
       3.8291175E-02
       3.6380200E-02
       3.7984160E-02
       3.7935573E-02
       3.7960701E-02
       3.8187766E-02
       3.7941435E-02
       3.7602556E-02
       3.7507041E-02
       3.8605527E-02
       3.8276896E-02
       3.8749315E-02
       3.8337541E-02
       3.8534230E-02
       2.8157505E-02
       7.0359571E-03
       4.4273872E-03
       1.6748661E-03
       3.1089597E-03
       1.8480996E-03
       2.7360125E-03
       2.5296285E-03
       3.7793885E-03
       4.3215145E-03
       3.6571383E-03
       5.0390229E-03
       1.7383920E-04
       3.5881965E-04
       2.1743710E-03
       2.5163926E-03
       1.5106723E-03
       7.7889180E-04
       2.6402154E-03
       5.0853204E-04
       4.9386899E-04
       1.6538187E-03
       9.7955620E-04
       5.4672036E-04
       9.1690714E-04
       1.9170293E-04
       2.7167575E-02
       2.0576132E-02
       1.9387127E-02
       2.1847255E-02
       2.0249203E-02
       2.0910242E-02
       2.1993886E-02
       2.5881539E-02
       2.4353913E-02
       2.5143577E-02
       2.6076096E-02
       2.4499293E-02
       2.5218193E-02
       2.3450853E-02
       2.5353528E-02
       2.6189777E-02
       2.5578099E-02
       2.6984373E-02
       2.7703653E-02
       2.6907168E-02
       2.5791721E-02
       2.4091405E-02
       2.4971498E-02
       2.4065941E-02
       2.4775163E-02
       2.5729760E-02
       2.4949881E-02
       2.3860464E-02
       2.4827734E-02
       2.4254964E-02
       2.4634477E-02
       2.2444319E-02
       2.4652534E-02
       2.2560375E-02
       2.5928887E-02
       2.3674878E-02
       2.5596914E-02
       2.6561319E-02
       2.2977376E-02
       2.3427855E-02
       2.4531633E-02
       2.6544840E-02
       2.7516507E-02
       2.6845474E-02
       2.5888610E-02
       2.8101074E-02
       2.6538256E-02
       2.7008398E-02
       2.6516996E-02
       2.5450658E-02
       2.7422348E-02
       2.7272472E-02
       2.8469224E-02
       2.7312889E-02
       2.7930746E-02
       2.9341915E-02
       2.8641804E-02
       2.9650119E-02
       1.2046265E-02
       1.4758975E-02
       1.6779718E-02
       1.7783658E-02
       1.6890461E-02
       1.4308212E-02
       5.9808074E-03
       1.4479106E-03
       6.1722745E-03
       2.8791730E-03
       1.7662423E-02
       2.1027759E-02
       1.4040620E-02
       1.2579390E-02
       1.9188947E-02
       1.9431924E-02
       1.7899931E-02
       1.5693806E-02
       1.6225362E-02
       1.7167299E-02
       1.7120674E-02
       1.8626464E-02
       1.3581072E-02
       1.2374937E-02
       1.4570084E-02
       1.4332929E-02
       1.1687277E-02
       1.2985844E-02
       1.4182224E-02
       8.3567662E-03
       7.9353866E-03
       1.0925949E-02
       8.0965932E-03
       1.0036221E-02
       1.0105000E-02
       1.5576587E-02
       7.8813694E-03
       1.0374023E-02
       5.3465691E-03
       2.8216754E-03
       2.9895610E-03
       1.8170411E-03
       2.1183026E-02
       1.9350345E-02
       1.8905283E-02
       6.4083817E-03
       7.5342702E-03
       8.0724131E-03
       5.7283975E-03
       6.0256578E-03
       4.3870447E-03
       2.7730183E-02
       2.6813459E-02
       2.8526098E-02
       2.6748462E-02
       2.8738870E-02
       2.4944191E-02
       2.9888429E-02
       2.4554135E-02
       3.0950750E-02
       2.9641478E-02
       2.6664655E-02
       2.7868725E-02
       1.6658008E-02
       3.0397864E-02
       2.1687802E-02
       2.1926841E-02
       9.5448801E-03
       2.0473540E-02
       3.1657228E-02
       1.3708113E-02
       1.1162880E-02
       1.4100950E-02
       1.3883120E-02
       3.0089917E-02
       3.1510346E-02
       2.4071689E-02
       2.2724312E-02
       3.1494540E-02
       3.3314897E-02
       3.3401305E-02
       3.1393691E-02
       3.3347351E-02
       3.4825011E-02
       3.4467825E-02
       3.6757213E-02
       3.5823332E-02
       3.7357605E-02
       3.6879871E-02
       3.7292273E-02
       3.6765061E-02
       3.7338932E-02
       3.8212776E-02
       3.7766270E-02
       3.7808224E-02
       3.7836793E-02
       3.5262335E-02
       3.5937052E-02
       3.4652637E-02
       3.5868335E-02
       3.7823554E-02
       3.7967150E-02
       3.7409212E-02
       3.7220342E-02
       3.7478032E-02
       3.8494237E-02
       3.9357690E-02
       3.8144385E-03
       4.7097267E-04
       1.1561060E-03
       2.6210240E-04
       2.2520433E-02
       2.3314039E-02
       2.0937091E-02
       2.1904548E-02
       2.2714406E-02
       2.7079028E-02
       2.8677407E-02
       2.8350653E-02
       2.3200783E-02
       2.2160100E-02
       2.0985681E-02
       2.6353785E-02
       2.5689612E-02
       2.2710975E-02
       2.8397346E-02
       3.0424011E-02
       2.3027945E-03
       1.1225471E-03
       3.5550223E-03
       1.5061656E-03
       2.1109579E-03
       5.7748605E-03
       4.5126944E-04
       1.9778119E-03
       1.9306452E-04
       3.9789948E-04
       4.0281748E-04
       6.3686933E-04
       3.4627563E-04
       9.2607737E-04
       1.8928296E-04
       8.7472175E-03
       1.0513806E-02
       3.0851775E-03
       4.6545634E-03
       1.9626894E-02
       1.9988638E-02
       2.1543917E-02
       2.1446889E-02
       2.2423934E-02
       2.3178732E-02
       2.3692835E-02
       1.2376817E-02
       1.1628243E-02
       1.5731037E-02
       1.6436289E-02
       6.3060241E-03
       1.3828883E-02
       1.4890523E-02
       3.8527440E-03
       1.4011331E-02
       1.6417321E-02
       1.7905282E-02
       1.7697619E-02
       1.9087890E-02
       1.7507210E-02
       9.1001575E-04
       1.9243325E-02
       1.5761736E-02
       1.8941388E-02
       1.4861819E-02
       1.4952356E-02
       1.4497832E-02
       7.9183419E-03
       1.1782175E-02
       9.6904929E-03
       1.0726835E-02
       9.4735500E-03
       4.4153508E-03
       1.6995077E-03
       1.8168899E-02
       1.7434875E-02
       1.9609958E-02
       1.2234113E-02
       1.2415300E-02
       1.0852353E-02
       1.4562277E-02
       1.3149398E-02
       1.1921111E-02
       1.6456865E-02
       6.2443416E-03
       1.8118742E-03
       1.2450300E-03
       2.2067487E-02
       1.7365027E-02
       1.1719122E-02
       1.3852412E-02
       1.1032031E-02
       1.6210778E-02
       1.8623338E-02
       1.7364274E-02
       3.2427306E-02
       3.4257643E-02
       3.4319647E-02
       3.4552881E-02
       3.4479478E-02
       3.4886156E-02
       3.3969774E-02
       3.3864333E-02
       3.4420545E-02
       3.3869290E-02
       3.6783072E-02
       3.6616223E-02
       4.1045067E-02
       3.6392317E-02
       3.5109946E-02
       3.8781230E-02
       3.8133532E-02
       3.8831311E-02
       3.8136788E-02
       3.6979769E-02
       3.9785234E-02
       3.2388702E-02
       3.9413817E-02
       4.0463666E-02
       3.5224096E-02
       3.1991367E-02
       4.0420982E-02
       4.0080504E-02
       3.8492644E-02
       3.8746768E-02
       3.8937067E-02
       3.2451682E-02
       3.9644180E-02
       3.5551662E-02
       3.9278484E-02
       3.4225791E-02
       4.0110087E-02
       3.9120807E-02
       3.9675609E-02
       3.9378734E-02
       3.9800196E-02
       3.8595975E-02
       4.0280341E-02
       3.6893531E-02
       4.0026371E-02
       3.6487469E-02
       3.5869614E-02
       3.9812159E-02
       4.0340301E-02
       3.7126485E-02
       3.5719559E-02
       1.7242107E-02
       4.0771736E-02
       1.4120178E-02
       4.1136114E-02
       3.7294416E-02
       4.0868268E-02
       3.4098151E-02
       3.3000013E-02
       4.0948535E-02
       4.1324544E-02
       4.1320406E-02
       4.1924517E-02
       4.0696873E-02
       4.0567866E-02
       3.6478924E-02
       3.4989012E-02
       3.6187692E-02
       3.4383007E-02
       3.3760847E-02
       3.9178736E-02
       3.5069588E-02
       3.6205743E-02
       3.3429750E-02
       3.4400000E-02
       3.5293502E-02
       4.2635280E-02
       3.7545519E-02
       3.9900949E-02
       3.5191759E-02
       3.9677065E-02
       3.5571115E-02
       3.4976494E-02
       3.4017879E-02
       3.3306677E-02
       3.4609698E-02
       3.5177780E-02
       3.5222550E-02
       3.4938179E-02
       3.4548698E-02
       3.4972541E-02
       3.4027628E-02
       3.4955202E-02
       3.3301975E-02
       3.3148295E-02
       3.3738147E-02
       3.3022338E-02
       3.3819527E-02
       3.4405231E-02
       3.4032634E-02
       3.3339611E-02
       3.2615525E-02
       3.2362865E-02
       3.2162104E-02
       3.1106553E-02
       3.3021753E-02
       3.3196836E-02
       3.6119813E-02
       3.7778317E-02
       3.7055206E-02
       3.7342510E-02
       3.8276865E-02
       3.9065989E-02
       3.8836469E-02
       3.9064825E-02
       3.8859689E-02
       3.8492585E-02
       3.9172345E-02
       3.8757638E-02
       3.9647233E-02
       3.8787991E-02
       3.9548135E-02
       3.9281436E-02
       3.9918311E-02
       3.9058302E-02
       3.9122379E-02
       3.9085029E-02
       3.8368074E-02
       3.9441614E-02
       3.8772315E-02
       3.8569378E-02
       3.9272003E-02
       3.9325452E-02