# vtk DataFile Version 3.0
# Solution du M1 TR
ASCII
DATASET UNSTRUCTURED_GRID
POINTS   3280  float
0.0000000E+00  0.0000000E+00  0.2253805E-01
0.2000000E+01  0.0000000E+00  0.1960240E+01
0.2000000E+01  0.1000000E+01  0.1960395E+01
0.0000000E+00  0.1000000E+01  0.2266677E-01
0.1000000E+01  0.0000000E+00  0.9919541E+00
0.1000000E+01  0.1000000E+01  0.9918934E+00
0.1500000E+01  0.5000000E+00  0.1496921E+01
0.1500000E+01  0.0000000E+00  0.1473764E+01
0.1723284E+01  0.3570951E+00  0.1702482E+01
0.1500000E+01  0.2500000E+00  0.1495424E+01
0.1515103E+01  0.2763186E+00  0.1510103E+01
0.1594866E+01  0.2826386E+00  0.1585102E+01
0.1562500E+01  0.1875000E+00  0.1553466E+01
0.1534357E+01  0.1819434E+00  0.1526219E+01
0.1561083E+01  0.3343258E+00  0.1553690E+01
0.1750000E+01  0.0000000E+00  0.1715451E+01
0.1503267E+01  0.1622339E+00  0.1495664E+01
0.1514910E+01  0.2261192E+00  0.1509211E+01
0.1610795E+01  0.1290247E+00  0.1593620E+01
0.1539062E+01  0.1536458E+00  0.1528705E+01
0.1510772E+01  0.1982718E+00  0.1504380E+01
0.1541862E+01  0.2179813E+00  0.1534633E+01
0.1475030E+01  0.2178147E+00  0.1471129E+01
0.1539206E+01  0.2578835E+00  0.1532617E+01
0.1521085E+01  0.2465697E+00  0.1515291E+01
0.1496499E+01  0.2146241E+00  0.1491385E+01
0.1481433E+01  0.1870688E+00  0.1475861E+01
0.1586261E+01  0.1960616E+00  0.1575624E+01
0.1460896E+01  0.2899333E+00  0.1458730E+01
0.1542195E+01  0.2867649E+00  0.1535656E+01
0.1486080E+01  0.2754813E+00  0.1482515E+01
0.1536278E+01  0.3247610E+00  0.1530408E+01
0.1510131E+01  0.3295675E+00  0.1505767E+01
0.1455545E+01  0.2514402E+00  0.1453210E+01
0.1610995E+01  0.1909452E+00  0.1598868E+01
0.1564462E+01  0.2395252E+00  0.1556346E+01
0.1571524E+01  0.3026484E+00  0.1563248E+01
0.1613657E+01  0.2555806E+00  0.1602560E+01
0.1633998E+01  0.2714643E+00  0.1621251E+01
0.1534973E+01  0.3650914E+00  0.1528753E+01
0.1583157E+01  0.2286349E+00  0.1573551E+01
0.1586501E+01  0.1581416E+00  0.1574158E+01
0.1651985E+01  0.2274641E+00  0.1637787E+01
0.1619170E+01  0.2936434E+00  0.1607535E+01
0.1678889E+01  0.2641389E+00  0.1662235E+01
0.1642286E+01  0.2930521E+00  0.1628698E+01
0.1526415E+01  0.3446283E+00  0.1520933E+01
0.1662420E+01  0.3044259E+00  0.1647131E+01
0.1636786E+01  0.2469276E+00  0.1624016E+01
0.1588953E+01  0.3366240E+00  0.1579689E+01
0.1616427E+01  0.3314099E+00  0.1605141E+01
0.1598305E+01  0.3102698E+00  0.1588245E+01
0.1655410E+01  0.2614708E+00  0.1640792E+01
0.1487553E+01  0.3072167E+00  0.1484169E+01
0.1520126E+01  0.3036443E+00  0.1515017E+01
0.1477894E+01  0.2544664E+00  0.1474636E+01
0.1567847E+01  0.2133479E+00  0.1558874E+01
0.1663947E+01  0.3299725E+00  0.1648985E+01
0.1567022E+01  0.2696000E+00  0.1559026E+01
0.1678598E+01  0.3509559E+00  0.1662030E+01
0.1611933E+01  0.3827205E+00  0.1600306E+01
0.1640491E+01  0.3197373E+00  0.1627318E+01
0.1588015E+01  0.2526666E+00  0.1578558E+01
0.1708471E+01  0.3144917E+00  0.1689104E+01
0.1606944E+01  0.3564315E+00  0.1596070E+01
0.1604614E+01  0.2314093E+00  0.1593706E+01
0.1643491E+01  0.3631133E+00  0.1629824E+01
0.2000000E+01  0.5000000E+00  0.1960519E+01
0.1494727E+01  0.3621796E+00  0.1490957E+01
0.1701807E+01  0.3477237E+00  0.1682912E+01
0.1572156E+01  0.3701847E+00  0.1563747E+01
0.1688392E+01  0.3285111E+00  0.1671152E+01
0.1695932E+01  0.3904821E+00  0.1677466E+01
0.1636337E+01  0.3418163E+00  0.1623560E+01
0.1505941E+01  0.9448485E-01  0.1486400E+01
0.1423727E+01  0.1910920E+00  0.1420744E+01
0.1481447E+01  0.3359634E+00  0.1478575E+01
0.1441613E+01  0.3726133E+00  0.1440809E+01
0.1466699E+01  0.3599060E+00  0.1464562E+01
0.1476682E+01  0.4107296E+00  0.1474165E+01
0.1434448E+01  0.3273535E+00  0.1433941E+01
0.1464523E+01  0.3867258E+00  0.1462686E+01
0.1456903E+01  0.3373583E+00  0.1455361E+01
0.1454188E+01  0.3132491E+00  0.1452501E+01
0.1424069E+01  0.2919612E+00  0.1423506E+01
0.1490969E+01  0.3884111E+00  0.1487609E+01
0.1428051E+01  0.4202828E+00  0.1428248E+01
0.1513790E+01  0.3782958E+00  0.1508943E+01
0.1547789E+01  0.4092466E+00  0.1540993E+01
0.1535154E+01  0.3889763E+00  0.1529019E+01
0.1512699E+01  0.4170463E+00  0.1508256E+01
0.1441554E+01  0.3983607E+00  0.1440971E+01
0.1395941E+01  0.3853832E+00  0.1397631E+01
0.1420578E+01  0.3854393E+00  0.1420970E+01
0.1408336E+01  0.3518173E+00  0.1409168E+01
0.1549967E+01  0.3074339E+00  0.1543208E+01
0.1651639E+01  0.4114272E+00  0.1637095E+01
0.1668616E+01  0.3788978E+00  0.1652800E+01
0.1674624E+01  0.4027285E+00  0.1658345E+01
0.1706988E+01  0.4343785E+00  0.1687401E+01
0.1673984E+01  0.4357547E+00  0.1657321E+01
0.1695270E+01  0.4139894E+00  0.1677063E+01
0.1737273E+01  0.4034108E+00  0.1714600E+01
0.1645630E+01  0.3875965E+00  0.1631776E+01
0.1625874E+01  0.4052508E+00  0.1613385E+01
0.1627808E+01  0.4540126E+00  0.1615675E+01
0.1587158E+01  0.4136289E+00  0.1577680E+01
0.1633718E+01  0.4293591E+00  0.1621014E+01
0.1651607E+01  0.4466828E+00  0.1637225E+01
0.1605650E+01  0.4356658E+00  0.1594972E+01
0.1682168E+01  0.4808869E+00  0.1664080E+01
0.1671711E+01  0.4594749E+00  0.1655374E+01
0.1698428E+01  0.4596870E+00  0.1679652E+01
0.1646221E+01  0.4851828E+00  0.1631876E+01
0.1607747E+01  0.4151289E+00  0.1596732E+01
0.1584205E+01  0.4841185E+00  0.1574891E+01
0.1747573E+01  0.4622079E+00  0.1723698E+01
0.1568396E+01  0.4481495E+00  0.1560216E+01
0.1601760E+01  0.4629165E+00  0.1591564E+01
0.1723356E+01  0.4540167E+00  0.1702058E+01
0.1732897E+01  0.4294241E+00  0.1710366E+01
0.1722218E+01  0.4972746E+00  0.1700263E+01
0.1715121E+01  0.4754441E+00  0.1694177E+01
0.1584567E+01  0.4345797E+00  0.1575433E+01
0.1563465E+01  0.4258523E+00  0.1555873E+01
0.1534166E+01  0.4440258E+00  0.1528327E+01
0.1615090E+01  0.4918227E+00  0.1603519E+01
0.1717469E+01  0.4134541E+00  0.1696945E+01
0.1718488E+01  0.3909170E+00  0.1697609E+01
0.1741353E+01  0.3769080E+00  0.1718407E+01
0.1781199E+01  0.4241746E+00  0.1754062E+01
0.2000000E+01  0.2500000E+00  0.1960360E+01
0.1756308E+01  0.4199875E+00  0.1731778E+01
0.1762447E+01  0.3937207E+00  0.1737400E+01
0.1765097E+01  0.4438197E+00  0.1739404E+01
0.1807974E+01  0.4625425E+00  0.1777149E+01
0.1789176E+01  0.4471344E+00  0.1760659E+01
0.1514158E+01  0.1287364E+00  0.1502197E+01
0.1777674E+01  0.4803377E+00  0.1750672E+01
0.1811145E+01  0.4395021E+00  0.1780911E+01
0.1850404E+01  0.4566449E+00  0.1816459E+01
0.1748483E+01  0.3522599E+00  0.1724988E+01
0.1731235E+01  0.3304535E+00  0.1709651E+01
0.1777870E+01  0.3654441E+00  0.1751734E+01
0.1748149E+01  0.2821176E+00  0.1724754E+01
0.1732875E+01  0.3039003E+00  0.1711081E+01
0.1708314E+01  0.2807181E+00  0.1689205E+01
0.1767650E+01  0.3193756E+00  0.1742559E+01
0.1372661E+01  0.1704076E+00  0.1370259E+01
0.1411157E+01  0.2494459E+00  0.1410799E+01
0.1448000E+01  0.2246098E+00  0.1445425E+01
0.1360382E+01  0.2278583E+00  0.1361539E+01
0.1433680E+01  0.2431125E+00  0.1432275E+01
0.1388814E+01  0.2314916E+00  0.1388899E+01
0.1314549E+01  0.2124991E+00  0.1317176E+01
0.1404157E+01  0.2007613E+00  0.1402758E+01
0.1415035E+01  0.1072182E+00  0.1404460E+01
0.1520299E+01  0.1091515E+00  0.1504547E+01
0.1459010E+01  0.1690672E+00  0.1453478E+01
0.1436337E+01  0.2690050E+00  0.1435074E+01
0.1443480E+01  0.1263360E+00  0.1434858E+01
0.1625000E+01  0.0000000E+00  0.1593875E+01
0.1414954E+01  0.2197329E+00  0.1413602E+01
0.1335299E+01  0.2266424E+00  0.1337379E+01
0.1396801E+01  0.1612344E+00  0.1392689E+01
0.1792033E+01  0.3934232E+00  0.1764306E+01
0.1541310E+01  0.1264947E+00  0.1527980E+01
0.1483859E+01  0.1256971E+00  0.1472336E+01
0.1500341E+01  0.1139400E+00  0.1486497E+01
0.1498380E+01  0.1421255E+00  0.1488270E+01
0.1478242E+01  0.1468909E+00  0.1470036E+01
0.1453147E+01  0.1972183E+00  0.1449395E+01
0.1348833E+01  0.2067866E+00  0.1349866E+01
0.1368157E+01  0.2800764E+00  0.1370021E+01
0.1250000E+01  0.0000000E+00  0.1233558E+01
0.1496272E+01  0.2780308E-01  0.1471059E+01
0.1430228E+01  0.1622338E+00  0.1424817E+01
0.1544491E+01  0.1012427E+00  0.1525833E+01
0.1505524E+01  0.5428530E-01  0.1482111E+01
0.1576405E+01  0.1180891E+00  0.1559627E+01
0.1526885E+01  0.8834234E-01  0.1505366E+01
0.1558557E+01  0.6358195E-01  0.1533858E+01
0.1372206E+01  0.9428859E-01  0.1359789E+01
0.1414069E+01  0.8636887E-01  0.1399388E+01
0.1351230E+01  0.1581055E+00  0.1348867E+01
0.1371634E+01  0.2528708E+00  0.1372993E+01
0.1392978E+01  0.2694234E+00  0.1393642E+01
0.1321668E+01  0.2603105E+00  0.1325226E+01
0.1392566E+01  0.3027057E+00  0.1393662E+01
0.1345601E+01  0.2495441E+00  0.1347924E+01
0.1349996E+01  0.1827855E+00  0.1349616E+01
0.1475238E+01  0.9618066E-01  0.1458451E+01
0.1487372E+01  0.4556180E+00  0.1484633E+01
0.1432024E+01  0.3509343E+00  0.1431601E+01
0.1619231E+01  0.5383449E+00  0.1606660E+01
0.1532505E+01  0.4233173E+00  0.1526803E+01
0.1547332E+01  0.4788657E+00  0.1540817E+01
0.1627786E+01  0.4750493E+00  0.1615144E+01
0.1750658E+01  0.4911384E+00  0.1726270E+01
0.1783313E+01  0.5336292E+00  0.1754713E+01
0.1744147E+01  0.5299352E+00  0.1719355E+01
0.1772978E+01  0.5077787E+00  0.1745691E+01
0.1739682E+01  0.5092411E+00  0.1715632E+01
0.1715917E+01  0.5251974E+00  0.1694092E+01
0.1809547E+01  0.4999146E+00  0.1778288E+01
0.1486188E+01  0.5335558E+00  0.1483558E+01
0.1695320E+01  0.5058771E+00  0.1676030E+01
0.1793562E+01  0.5145404E+00  0.1763820E+01
0.1827482E+01  0.5355643E+00  0.1794838E+01
0.1805457E+01  0.5332234E+00  0.1774653E+01
0.1812320E+01  0.5734372E+00  0.1781251E+01
0.1794794E+01  0.5557356E+00  0.1765264E+01
0.1637325E+01  0.5533192E+00  0.1623085E+01
0.1761146E+01  0.5591762E+00  0.1734761E+01
0.1789115E+01  0.5788851E+00  0.1759914E+01
0.1693317E+01  0.6123782E+00  0.1674607E+01
0.1522396E+01  0.5359490E+00  0.1517515E+01
0.1814654E+01  0.6254783E+00  0.1783407E+01
0.1726166E+01  0.5505978E+00  0.1702942E+01
0.1691322E+01  0.5307786E+00  0.1672323E+01
0.1516987E+01  0.5143680E+00  0.1512658E+01
0.1661909E+01  0.5147686E+00  0.1645400E+01
0.1761865E+01  0.6508066E+00  0.1735823E+01
0.1692174E+01  0.5698207E+00  0.1673165E+01
0.1780214E+01  0.6037461E+00  0.1752243E+01
[...]
POINT_DATA    3280
SCALARS hauteur float
LOOKUP_TABLE DEFAULT
       2.2538053E-02
       1.0706548E-04
       2.6184229E-04
       2.2666766E-02
       1.1887540E-02
       1.1826800E-02
       2.6821442E-02
       3.6645551E-03
       1.3549029E-02
       2.5324309E-02
       2.5201086E-02
       2.2027541E-02
       2.2111529E-02
       2.2447033E-02
       2.3724289E-02
       3.3486689E-04
       2.2362195E-02
       2.4497625E-02
       1.4933621E-02
       2.0321148E-02
       2.3722769E-02
       2.3506206E-02
       2.5501615E-02
       2.4092822E-02
       2.4525873E-02
       2.4716258E-02
       2.3958253E-02
       2.0981701E-02
       2.6954755E-02
       2.4202205E-02
       2.6057628E-02
       2.4753730E-02
       2.5738610E-02
       2.6679346E-02
       1.9985539E-02
       2.3068547E-02
       2.3050359E-02
       2.1068277E-02
       1.9824492E-02
       2.4377003E-02
       2.1951181E-02
       1.9281353E-02
       1.8731277E-02
       2.0640907E-02
       1.6812042E-02
       1.9148130E-02
       2.4945304E-02
       1.7848319E-02
       1.9856436E-02
       2.2409766E-02
       2.0935466E-02
       2.1799925E-02
       1.8379429E-02
       2.6267818E-02
       2.5191619E-02
       2.6201795E-02
       2.2279447E-02
       1.8206402E-02
       2.3240133E-02
       1.6891636E-02
       2.0504561E-02
       1.9527293E-02
       2.2197212E-02
       1.4689141E-02
       2.1157926E-02
       2.1077297E-02
       1.9093979E-02
       3.8578004E-04
       2.6024648E-02
       1.5027422E-02
       2.2929751E-02
       1.6415001E-02
       1.5339594E-02
       1.9840046E-02
       1.0477607E-02
       2.5396003E-02
       2.6657867E-02
       2.7932241E-02
       2.7099619E-02
       2.6917579E-02
       2.8086676E-02
       2.7356317E-02
       2.7498830E-02
       2.7299338E-02
       2.7823216E-02
       2.6360020E-02
       2.8663477E-02
       2.5328641E-02
       2.4056011E-02
       2.4465374E-02
       2.5710313E-02
       2.8151575E-02
       2.9516529E-02
       2.8709213E-02
       2.8905165E-02
       2.4137691E-02
       1.8379179E-02
       1.7445134E-02
       1.7101051E-02
       1.4438860E-02
       1.6704711E-02
       1.5586185E-02
       1.1956545E-02
       1.8949163E-02
       1.9919635E-02
       2.0315068E-02
       2.2159429E-02
       1.9861569E-02
       1.8539578E-02
       2.1328648E-02
       1.5443496E-02
       1.6985803E-02
       1.5079438E-02
       1.8469137E-02
       2.1032658E-02
       2.2264432E-02
       1.0960395E-02
       2.3083375E-02
       2.1732380E-02
       1.3055091E-02
       1.2011156E-02
       1.2375102E-02
       1.3244931E-02
       2.2451848E-02
       2.3572933E-02
       2.4742700E-02
       2.0622886E-02
       1.3711065E-02
       1.3375906E-02
       1.1764971E-02
       8.3677060E-03
       2.2666901E-04
       1.0479622E-02
       1.0084804E-02
       9.4911212E-03
       5.2143651E-03
       7.1471995E-03
       1.8220700E-02
       8.4330017E-03
       5.8675316E-03
       2.9399563E-03
       1.1359011E-02
       1.2925352E-02
       9.3029563E-03
       1.1451594E-02
       1.2747824E-02
       1.4944192E-02
       1.0144529E-02
       2.4959549E-02
       2.7771703E-02
       2.6288680E-02
       2.8274166E-02
       2.7173360E-02
       2.7768950E-02
       2.8830331E-02
       2.6590580E-02
       1.7630931E-02
       1.4552820E-02
       2.3551327E-02
       2.7368536E-02
       2.0152170E-02
       1.2663126E-03
       2.6853107E-02
       2.8696453E-02
       2.3731040E-02
       7.9950218E-03
       1.7393089E-02
       1.8054776E-02
       1.6063513E-02
       1.9758298E-02
       2.1260900E-02
       2.5213529E-02
       2.7920111E-02
       2.9135827E-02
       8.4748087E-03
       4.6130869E-03
       2.3097743E-02
       1.2129218E-02
       6.5975152E-03
       1.4645377E-02
       8.9176030E-03
       6.3683169E-03
       1.4935793E-02
       1.3506296E-02
       2.4571365E-02
       2.8701063E-02
       2.8430555E-02
       2.9903865E-02
       2.8854784E-02
       2.9145229E-02
       2.6529893E-02
       1.2619966E-02
       2.6909911E-02
       2.8121900E-02
       1.9705398E-02
       2.4846182E-02
       2.4328710E-02
       1.9805662E-02
       1.0508303E-02
       6.9476266E-03
       9.9753188E-03
       8.0553187E-03
       1.0627874E-02
       1.2379477E-02
       4.8121604E-03
       2.6995217E-02
       1.4503723E-02
       6.0099416E-03
       3.7836603E-03
       5.1845164E-03
       5.0569701E-03
       6.2470101E-03
       1.8397399E-02
       8.7209896E-03
       6.4620044E-03
       1.5043754E-02
       2.5465556E-02
       4.9256938E-03
       1.1184221E-02
       1.4714776E-02
       2.5909667E-02
       1.6618949E-02
       9.0780198E-03
       1.4722112E-02
       7.5148068E-03
       2.3301686E-02
       1.6223788E-02
       9.7507391E-03
       2.2192762E-02
       1.6374704E-02
       1.1072384E-02
       1.0415390E-02
       1.3224594E-02
       1.3229491E-02
       4.4348975E-03
       6.4037740E-03
       4.4704504E-04
       1.0498212E-02
       2.7670708E-03
       7.6469083E-03
       8.9275816E-03
       1.6285821E-02
       1.3442655E-02
       6.5828669E-03
       4.2828534E-03
       4.3668503E-03
       5.8578823E-03
       7.0677072E-03
       7.1945882E-03
       9.3980144E-03
       2.0395471E-02
       2.7053484E-02
       1.6528398E-02
       1.8425853E-02
       2.0733524E-02
       2.2133729E-02
       6.1329358E-03
       9.1900804E-03
       5.8070943E-03
       2.5619072E-03
       2.2388223E-03
       3.4585338E-03
       1.0690390E-02
       1.0501566E-02
       2.5446000E-03
       1.5062931E-02
       4.9210376E-03
       1.3816150E-02
       3.5798557E-03
       7.8655781E-04
       9.6815990E-03
       1.8056494E-02
       1.6834275E-02
       1.8858220E-02
       8.6941181E-03
       1.7763344E-02
       2.2331438E-02
       2.1462076E-02
       2.6077817E-02
       2.4620105E-02
       2.1742630E-02
       2.5471266E-02
       1.2592725E-02
       6.3077821E-03
       2.1779824E-02
       9.2808399E-03
       2.0831581E-02
       6.6416113E-03
       2.8284570E-02
       2.8517783E-02
       2.9282957E-02
       2.9757813E-02
       3.0064950E-02
       2.6572760E-02
       2.5738514E-02
       2.7711484E-02
       2.5242913E-02
       2.5518449E-02
       2.1522416E-02
       2.4454485E-02
       1.7977966E-02
       2.4096199E-02
       2.3181795E-02
       6.1351056E-03
       4.1140716E-03
       3.3138145E-03
       8.4224142E-03
       1.6828411E-02
       3.7242543E-03
       5.5247651E-03
       1.8751814E-02
       2.1757688E-02
       5.6024496E-03
       1.3992563E-02
       5.9736533E-03
       1.2378089E-02
       9.6313198E-03
       1.1447061E-02
       1.1442940E-02
       5.7642802E-03
       3.0847494E-03
       1.1250089E-04
       7.6309630E-03
       1.7256283E-03
       1.0453834E-02
       6.9809730E-03
       1.7511489E-02
       4.1095179E-04
       3.9029726E-03
       9.4785238E-03
       8.4147232E-03
       1.5263779E-02
       1.2706741E-02
       3.3060370E-03
       2.0517143E-02
       1.5528014E-03
       1.2643901E-02
       2.3576583E-02
       1.3716143E-03
       7.1151237E-04
       1.4876531E-02
       1.4768636E-02
       1.6061092E-02
       1.6107551E-02
       7.9619809E-03
       1.7168692E-02
       1.6129515E-02
       1.6629052E-02
       1.8596449E-02
       1.5546728E-02
       1.0437137E-02
       1.4068091E-02
       1.4937135E-02
       4.8930713E-04
       4.0156744E-03
       4.1611127E-03
       6.0983955E-03
       3.5262357E-03
       3.5954211E-03
       1.6154194E-03
       1.5702617E-03
       1.0132553E-03
       1.6670270E-02
       1.8700120E-02
       1.6350991E-02
       1.3409318E-02
       1.7434762E-02
       1.1190745E-02
       5.0635531E-03
       9.4742207E-03
       5.6726188E-03
       4.3891024E-03
       3.0505604E-03
       4.5574604E-03
       5.5640735E-03
       2.7837394E-02
       3.1081608E-02
       2.9394112E-02
       2.9994766E-02
       3.0904865E-02
       2.9594794E-02
       3.0455439E-02
       3.1424256E-02
       3.1126828E-02
       3.2237549E-02
       3.0640799E-02
       3.1737942E-02
       3.2757117E-02
       3.2176387E-02
       3.1857566E-02
       3.1964473E-02
       3.1074242E-02
       2.9792100E-02
       2.9322019E-02
       2.9185099E-02
       2.9126389E-02
       3.0088297E-02
       3.0671423E-02
       3.0794759E-02
       2.7529353E-02
       2.4689384E-02
       2.7756540E-02
       2.6383806E-02
       2.4935181E-02
       2.9950942E-02
       3.1094379E-02
       3.0750828E-02
       3.0394796E-02
       3.0368146E-02
       3.0953391E-02
       3.2245892E-02
       3.1676597E-02
       3.0193883E-02
       3.1575780E-02
       3.2149742E-02
       3.2303828E-02
       3.1637150E-02
       3.0634137E-02
       3.1000953E-02
       3.3556980E-02
       3.1526591E-02
       3.3349877E-02
       3.2886016E-02
       3.2822839E-02
       3.2848296E-02
       3.3845705E-02
       3.3278760E-02
       3.3118772E-02
       3.2821518E-02
       3.3293270E-02
       3.4327911E-02
       3.3760050E-02
       3.4080865E-02
       3.3289031E-02
       3.5083240E-02
       3.2880514E-02
       3.4405387E-02
       3.1981432E-02
       3.3831705E-02
       3.4663623E-02
       3.5386555E-02
       3.5207340E-02
       3.6187832E-02
       3.5682660E-02
       3.5070758E-02
       3.4127142E-02
       3.2634981E-02
       3.3322919E-02
       3.5728884E-02
       3.5891094E-02
       3.6014636E-02
       3.6821413E-02
       3.6499642E-02
       3.4859945E-02
       3.6414264E-02
       3.2086139E-02
       3.3122698E-02
       3.6338961E-02
       3.6278400E-02
       3.5689729E-02
       3.6285589E-02
       3.6685023E-02
       3.1261618E-02
       3.3092573E-02
       3.7299419E-02
       3.2513532E-02
       3.4160348E-02
       3.6914358E-02
       3.7182258E-02
       3.1340354E-02
       3.3736141E-02
       3.4307687E-02
       3.6799046E-02
       3.7216157E-02
       3.7149955E-02
       3.8034517E-02
       3.7713788E-02
       3.1901695E-02
       3.1271204E-02
       3.2181924E-02
       2.9762671E-02
       3.2277111E-02
       3.0546146E-02
       3.0600881E-02
       3.0422566E-02
       3.7774119E-02
       3.8766318E-02
       2.9509862E-02
       3.7543836E-02
       3.8065646E-02
       3.7514811E-02
       3.8328339E-02
       2.8716872E-02
       2.9957538E-02
       2.9296308E-02
       2.8283013E-02
       2.8973280E-02
       2.9167864E-02
       3.7850171E-02
       3.7352642E-02
       3.8314869E-02
       3.7512884E-02
       2.8129936E-02
       2.7473723E-02
       3.7022056E-02
       3.8808005E-02
       3.8096819E-02
       3.6369711E-02
       2.7771503E-02
       3.8632986E-02
       3.6917537E-02
       3.6265811E-02
       2.8641332E-02
       3.8066107E-02
       3.8702752E-02
       3.7310420E-02
       3.9645250E-02
       3.7402620E-02
       3.9298919E-02
       3.9201295E-02
       3.9210851E-02
       3.9468194E-02
       3.9171221E-02
       3.8728633E-02
       3.8600688E-02
       4.0017919E-02
       3.9614233E-02
       4.0214239E-02
       3.9666899E-02
       3.9906869E-02
       2.7769922E-02
       4.5184036E-03
       2.8850177E-03
       1.2066168E-03
       2.0808080E-03
       1.2866648E-03
       1.8746124E-03
       1.7134128E-03
       2.4660540E-03
       2.7960634E-03
       2.3976349E-03
       3.2612097E-03
       2.1210498E-04
       3.4511342E-04
       1.4774091E-03
       1.6799885E-03
       1.0576499E-03
       6.1363513E-04
       1.7721321E-03
       4.1930502E-04
       4.3960037E-04
       1.1419424E-03
       7.2747748E-04
       4.2411039E-04
       6.6880069E-04
       2.1805239E-04
       2.6694861E-02
       1.7098709E-02
       1.5796619E-02
       1.8983837E-02
       1.7243178E-02
       1.7878963E-02
       1.9587082E-02
       2.4861121E-02
       2.2630965E-02
       2.4046853E-02
       2.5292536E-02
       2.3007468E-02
       2.4011688E-02
       2.1574810E-02
       2.4320689E-02
       2.5472385E-02
       2.4642902E-02
       2.6460235E-02
       2.7347626E-02
       2.6354578E-02
       2.4942730E-02
       2.2694917E-02
       2.3837349E-02
       2.2825333E-02
       2.3614819E-02
       2.4790242E-02
       2.3855033E-02
       2.2650568E-02
       2.3730322E-02
       2.3060290E-02
       2.3635774E-02
       2.0944952E-02
       2.3585072E-02
       2.1424651E-02
       2.5001404E-02
       2.2550096E-02
       2.4626047E-02
       2.5767476E-02
       2.2046458E-02
       2.2416057E-02
       2.3617942E-02
       2.5838663E-02
       2.6793669E-02
       2.6048112E-02
       2.4993518E-02
       2.7601248E-02
       2.5676987E-02
       2.6239255E-02
       2.5686045E-02
       2.4592721E-02
       2.6749567E-02
       2.6668697E-02
       2.8281918E-02
       2.6814994E-02
       2.7531363E-02
       2.9128738E-02
       2.8367058E-02
       2.9654318E-02
       8.0887773E-03
       1.0429216E-02
       1.2439874E-02
       1.3524612E-02
       1.3059193E-02
       1.1878816E-02
       4.1414277E-03
       1.0496410E-03
       4.5897392E-03
       1.9930087E-03
       1.4172986E-02
       1.9095565E-02
       1.2104085E-02
       1.0580806E-02
       1.6980781E-02
       1.7524881E-02
       1.5407802E-02
       1.2830726E-02
       1.3282261E-02
       1.4725984E-02
       1.5132470E-02
       1.7092169E-02
       1.1034575E-02
       8.9351741E-03
       1.1220899E-02
       1.1067455E-02
       8.5832563E-03
       9.6943256E-03
       1.1183592E-02
       5.4492629E-03
       5.3626103E-03
       7.6240972E-03
       5.2692148E-03
       6.7706491E-03
       6.8296106E-03
       1.2304000E-02
       5.2470023E-03
       7.3336073E-03
       4.2022791E-03
       2.0332574E-03
       2.0561336E-03
       1.2184691E-03
       1.9954207E-02
       1.9287641E-02
       1.8928461E-02
       5.9032662E-03
       6.9067688E-03
       7.6572965E-03
       5.0889593E-03
       5.2734007E-03
       3.5484183E-03
       2.7821521E-02
       2.6974548E-02
       2.8760257E-02
       2.6948962E-02
       2.8936774E-02
       2.5213151E-02
       3.0127369E-02
       2.4770664E-02
       3.1232113E-02
       2.9917846E-02
       2.6899142E-02
       2.8173701E-02
       1.7036943E-02
       3.0763905E-02
       2.1889740E-02
       2.2176562E-02
       1.0458487E-02
       2.0794201E-02
       3.1923421E-02
       1.4255119E-02
       1.1179181E-02
       1.4489975E-02
       1.4177687E-02
       3.0408355E-02
       3.1862090E-02
       2.4147646E-02
       2.2771628E-02
       3.1501161E-02
       3.3535970E-02
       3.3697364E-02
       3.1457220E-02
       3.3654748E-02
       3.5362042E-02
       3.4895499E-02
       3.7655450E-02
       3.6524927E-02
       3.8429832E-02
       3.8020915E-02
       3.8612291E-02
       3.7959812E-02
       3.8597850E-02
       3.9661992E-02
       3.9139069E-02
       3.9137765E-02
       3.9292942E-02
       3.6462669E-02
       3.7063968E-02
       3.5506375E-02
       3.6766957E-02
       3.9004016E-02
       3.9170692E-02
       3.8469751E-02
       3.8228110E-02
       3.8557255E-02
       3.9920602E-02
       4.0949668E-02
       2.5352816E-03
       4.4568107E-04
       8.6881197E-04
       3.0527299E-04
       1.9882489E-02
       2.1041164E-02
       1.8476477E-02
       1.9905199E-02
       2.0360625E-02
       2.6542154E-02
       2.8605707E-02
       2.8178794E-02
       2.1431667E-02
       2.0140800E-02
       1.9628818E-02
       2.5657951E-02
       2.4777869E-02
       2.1928484E-02
       2.8238667E-02
       3.0594992E-02
       1.6549462E-03
       8.3588851E-04
       2.6025290E-03
       1.1617412E-03
       1.5770090E-03
       4.3870167E-03
       3.6653422E-04
       1.4593086E-03
       1.4413154E-04
       2.9436037E-04
       3.8969425E-04
       5.9727030E-04
       2.5564770E-04
       6.8484780E-04
       1.7392046E-04
       6.7508497E-03
       8.4691856E-03
       2.1503684E-03
       3.0792406E-03
       1.7263480E-02
       1.7986739E-02
       1.9834846E-02
       1.9911806E-02
       2.0752004E-02
       2.1769587E-02
       2.2312356E-02
       1.0329270E-02
       9.6818269E-03
       1.3824510E-02
       1.4873662E-02
       4.8939117E-03
       1.1891373E-02
       1.3069984E-02
       2.9041903E-03
       1.2082290E-02
       1.4782000E-02
       1.6430614E-02
       1.6393768E-02
       1.7615103E-02
       1.6090824E-02
       7.3453286E-04
       1.7968180E-02
       1.4201389E-02
       1.7577590E-02
       1.3140359E-02
       1.3390126E-02
       1.2708359E-02
       5.9683373E-03
       9.6273880E-03
       7.4585826E-03
       8.7307180E-03
       7.2081031E-03
       3.1700217E-03
       1.2780239E-03
       1.7036280E-02
       1.6189492E-02
       1.8493096E-02
       8.7665220E-03
       8.9375996E-03
       7.5520155E-03
       1.1152855E-02
       9.6934042E-03
       8.5966062E-03
       1.3360530E-02
       4.1269502E-03
       1.2239610E-03
       8.4041117E-04
       2.2218974E-02
       1.7572035E-02
       1.1873401E-02
       1.4036019E-02
       1.1364386E-02
       1.6300384E-02
       1.8740830E-02
       1.7640624E-02
       3.2735785E-02
       3.4717241E-02
       3.4787823E-02
       3.5029212E-02
       3.4975077E-02
       3.5427732E-02
       3.4336733E-02
       3.4176086E-02
       3.4819392E-02
       3.4167557E-02
       3.7691561E-02
       3.7866482E-02
       4.3020442E-02
       3.8056952E-02
       3.6220987E-02
       4.0485225E-02
       3.9693923E-02
       4.0497364E-02
       3.9747347E-02
       3.8378178E-02
       4.1628668E-02
       3.3536102E-02
       4.1170718E-02
       4.2374442E-02
       3.6499906E-02
       3.2503049E-02
       4.2314886E-02
       4.1911491E-02
       4.0026794E-02
       4.0279813E-02
       4.0548474E-02
       3.3906491E-02
       4.1356617E-02
       3.6569543E-02
       4.0921434E-02
       3.5328286E-02
       4.1982990E-02
       4.0694222E-02
       4.1443592E-02
       4.1074333E-02
       4.1562418E-02
       4.0185003E-02
       4.2113092E-02
       3.8347522E-02
       4.1815682E-02
       3.7945979E-02
       3.7068357E-02
       4.1541152E-02
       4.2194645E-02
       3.8480125E-02
       3.7092913E-02
       1.8164729E-02
       4.2713552E-02
       1.5590747E-02
       4.3117894E-02
       3.8844748E-02
       4.2810262E-02
       3.5117507E-02
       3.4017638E-02
       4.2907724E-02
       4.3306188E-02
       4.3309810E-02
       4.3958851E-02
       4.2622274E-02
       4.2465154E-02
       3.8009660E-02
       3.5999690E-02
       3.7550495E-02
       3.5564419E-02
       3.4973886E-02
       4.0865105E-02
       3.6531466E-02
       3.7497137E-02
       3.4548221E-02
       3.5102572E-02
       3.6695665E-02
       4.4662289E-02
       3.9046665E-02
       4.1730032E-02
       3.6042156E-02
       4.1494839E-02
       3.6516169E-02
       3.5909786E-02
       3.4892431E-02
       3.4037609E-02
       3.5390123E-02
       3.5858116E-02
       3.6010496E-02
       3.5639008E-02
       3.5145358E-02
       3.5574645E-02
       3.4646624E-02
       3.5514542E-02
       3.3924298E-02
       3.3625377E-02
       3.4272665E-02
       3.3565635E-02
       3.4293456E-02
       3.4926716E-02
       3.4469895E-02
       3.3715723E-02
       3.2979556E-02
       3.2773242E-02
       3.2625013E-02
       3.1565445E-02
       3.3327977E-02
       3.3617262E-02
       3.6998306E-02
       3.8941472E-02
       3.8023880E-02
       3.8396474E-02
       3.9693628E-02
       4.0586261E-02
       4.0299732E-02
       4.0569810E-02
       4.0319027E-02
       3.9851859E-02
       4.0715958E-02
       4.0182534E-02
       4.1317515E-02
       4.0222567E-02
       4.1198104E-02
       4.0857665E-02
       4.1656725E-02
       4.0563699E-02
       4.0680798E-02
       4.0611966E-02
       3.9752976E-02
       4.1065715E-02
       4.0232513E-02
       4.0064972E-02
       4.0850474E-02
       4.0917144E-02