# vtk DataFile Version 3.0
# Solution du M1 TR
ASCII
DATASET UNSTRUCTURED_GRID
POINTS   3280  float
0.0000000E+00  0.0000000E+00  0.2198454E-01
0.2000000E+01  0.0000000E+00  0.1960231E+01
0.2000000E+01  0.1000000E+01  0.1960384E+01
0.0000000E+00  0.1000000E+01  0.2204394E-01
0.1000000E+01  0.0000000E+00  0.9918232E+00
0.1000000E+01  0.1000000E+01  0.9918807E+00
0.1500000E+01  0.5000000E+00  0.1497117E+01
0.1500000E+01  0.0000000E+00  0.1473951E+01
0.1723284E+01  0.3570951E+00  0.1703088E+01
0.1500000E+01  0.2500000E+00  0.1495474E+01
0.1515103E+01  0.2763186E+00  0.1510206E+01
0.1594866E+01  0.2826386E+00  0.1585387E+01
0.1562500E+01  0.1875000E+00  0.1553600E+01
0.1534357E+01  0.1819434E+00  0.1526308E+01
0.1561083E+01  0.3343258E+00  0.1553909E+01
0.1750000E+01  0.0000000E+00  0.1715464E+01
0.1503267E+01  0.1622339E+00  0.1495722E+01
0.1514910E+01  0.2261192E+00  0.1509275E+01
0.1610795E+01  0.1290247E+00  0.1593978E+01
0.1539062E+01  0.1536458E+00  0.1528837E+01
0.1510772E+01  0.1982718E+00  0.1504434E+01
0.1541862E+01  0.2179813E+00  0.1534738E+01
0.1475030E+01  0.2178147E+00  0.1471136E+01
0.1539206E+01  0.2578835E+00  0.1532755E+01
0.1521085E+01  0.2465697E+00  0.1515382E+01
0.1496499E+01  0.2146241E+00  0.1491416E+01
0.1481433E+01  0.1870688E+00  0.1475879E+01
0.1586261E+01  0.1960616E+00  0.1575840E+01
0.1460896E+01  0.2899333E+00  0.1458763E+01
0.1542195E+01  0.2867649E+00  0.1535822E+01
0.1486080E+01  0.2754813E+00  0.1482573E+01
0.1536278E+01  0.3247610E+00  0.1530577E+01
0.1510131E+01  0.3295675E+00  0.1505897E+01
0.1455545E+01  0.2514402E+00  0.1453212E+01
0.1610995E+01  0.1909452E+00  0.1599167E+01
0.1564462E+01  0.2395252E+00  0.1556514E+01
0.1571524E+01  0.3026484E+00  0.1563488E+01
0.1613657E+01  0.2555806E+00  0.1602887E+01
0.1633998E+01  0.2714643E+00  0.1621654E+01
0.1534973E+01  0.3650914E+00  0.1528970E+01
0.1583157E+01  0.2286349E+00  0.1573765E+01
0.1586501E+01  0.1581416E+00  0.1574374E+01
0.1651985E+01  0.2274641E+00  0.1638225E+01
0.1619170E+01  0.2936434E+00  0.1607901E+01
0.1678889E+01  0.2641389E+00  0.1662781E+01
0.1642286E+01  0.2930521E+00  0.1629144E+01
0.1526415E+01  0.3446283E+00  0.1521110E+01
0.1662420E+01  0.3044259E+00  0.1647639E+01
0.1636786E+01  0.2469276E+00  0.1624403E+01
0.1588953E+01  0.3366240E+00  0.1579977E+01
0.1616427E+01  0.3314099E+00  0.1605501E+01
0.1598305E+01  0.3102698E+00  0.1588555E+01
0.1655410E+01  0.2614708E+00  0.1641270E+01
0.1487553E+01  0.3072167E+00  0.1484256E+01
0.1520126E+01  0.3036443E+00  0.1515152E+01
0.1477894E+01  0.2544664E+00  0.1474663E+01
0.1567847E+01  0.2133479E+00  0.1559035E+01
0.1663947E+01  0.3299725E+00  0.1649467E+01
0.1567022E+01  0.2696000E+00  0.1559233E+01
0.1678598E+01  0.3509559E+00  0.1662560E+01
0.1611933E+01  0.3827205E+00  0.1600721E+01
0.1640491E+01  0.3197373E+00  0.1627745E+01
0.1588015E+01  0.2526666E+00  0.1578806E+01
0.1708471E+01  0.3144917E+00  0.1689689E+01
0.1606944E+01  0.3564315E+00  0.1596429E+01
0.1604614E+01  0.2314093E+00  0.1593994E+01
0.1643491E+01  0.3631133E+00  0.1630277E+01
0.2000000E+01  0.5000000E+00  0.1960515E+01
0.1494727E+01  0.3621796E+00  0.1491089E+01
0.1701807E+01  0.3477237E+00  0.1683492E+01
0.1572156E+01  0.3701847E+00  0.1564031E+01
0.1688392E+01  0.3285111E+00  0.1671698E+01
0.1695932E+01  0.3904821E+00  0.1678051E+01
0.1636337E+01  0.3418163E+00  0.1623974E+01
0.1505941E+01  0.9448485E-01  0.1486648E+01
0.1423727E+01  0.1910920E+00  0.1420713E+01
0.1481447E+01  0.3359634E+00  0.1478668E+01
0.1441613E+01  0.3726133E+00  0.1440874E+01
0.1466699E+01  0.3599060E+00  0.1464653E+01
0.1476682E+01  0.4107296E+00  0.1474284E+01
0.1434448E+01  0.3273535E+00  0.1433973E+01
0.1464523E+01  0.3867258E+00  0.1462778E+01
0.1456903E+01  0.3373583E+00  0.1455423E+01
0.1454188E+01  0.3132491E+00  0.1452551E+01
0.1424069E+01  0.2919612E+00  0.1423516E+01
0.1490969E+01  0.3884111E+00  0.1487740E+01
0.1428051E+01  0.4202828E+00  0.1428299E+01
0.1513790E+01  0.3782958E+00  0.1509117E+01
0.1547789E+01  0.4092466E+00  0.1541254E+01
0.1535154E+01  0.3889763E+00  0.1529245E+01
0.1512699E+01  0.4170463E+00  0.1508432E+01
0.1441554E+01  0.3983607E+00  0.1441035E+01
0.1395941E+01  0.3853832E+00  0.1397637E+01
0.1420578E+01  0.3854393E+00  0.1421006E+01
0.1408336E+01  0.3518173E+00  0.1409183E+01
0.1549967E+01  0.3074339E+00  0.1543396E+01
0.1651639E+01  0.4114272E+00  0.1637631E+01
0.1668616E+01  0.3788978E+00  0.1653319E+01
0.1674624E+01  0.4027285E+00  0.1658901E+01
0.1706988E+01  0.4343785E+00  0.1688063E+01
0.1673984E+01  0.4357547E+00  0.1657936E+01
0.1695270E+01  0.4139894E+00  0.1677677E+01
0.1737273E+01  0.4034108E+00  0.1715245E+01
0.1645630E+01  0.3875965E+00  0.1632259E+01
0.1625874E+01  0.4052508E+00  0.1613844E+01
0.1627808E+01  0.4540126E+00  0.1616170E+01
0.1587158E+01  0.4136289E+00  0.1578032E+01
0.1633718E+01  0.4293591E+00  0.1621506E+01
0.1651607E+01  0.4466828E+00  0.1637802E+01
0.1605650E+01  0.4356658E+00  0.1595399E+01
0.1682168E+01  0.4808869E+00  0.1664804E+01
0.1671711E+01  0.4594749E+00  0.1656033E+01
0.1698428E+01  0.4596870E+00  0.1680337E+01
0.1646221E+01  0.4851828E+00  0.1632518E+01
0.1607747E+01  0.4151289E+00  0.1597143E+01
0.1584205E+01  0.4841185E+00  0.1575364E+01
0.1747573E+01  0.4622079E+00  0.1724366E+01
0.1568396E+01  0.4481495E+00  0.1560577E+01
0.1601760E+01  0.4629165E+00  0.1592013E+01
0.1723356E+01  0.4540167E+00  0.1702747E+01
0.1732897E+01  0.4294241E+00  0.1711032E+01
0.1722218E+01  0.4972746E+00  0.1700998E+01
0.1715121E+01  0.4754441E+00  0.1694901E+01
0.1584567E+01  0.4345797E+00  0.1575806E+01
0.1563465E+01  0.4258523E+00  0.1556175E+01
0.1534166E+01  0.4440258E+00  0.1528590E+01
0.1615090E+01  0.4918227E+00  0.1604088E+01
0.1717469E+01  0.4134541E+00  0.1697587E+01
0.1718488E+01  0.3909170E+00  0.1698234E+01
0.1741353E+01  0.3769080E+00  0.1719028E+01
0.1781199E+01  0.4241746E+00  0.1754621E+01
0.2000000E+01  0.2500000E+00  0.1960360E+01
0.1756308E+01  0.4199875E+00  0.1732411E+01
0.1762447E+01  0.3937207E+00  0.1738008E+01
0.1765097E+01  0.4438197E+00  0.1740020E+01
0.1807974E+01  0.4625425E+00  0.1777531E+01
0.1789176E+01  0.4471344E+00  0.1761166E+01
0.1514158E+01  0.1287364E+00  0.1502351E+01
0.1777674E+01  0.4803377E+00  0.1751248E+01
0.1811145E+01  0.4395021E+00  0.1781337E+01
0.1850404E+01  0.4566449E+00  0.1816657E+01
0.1748483E+01  0.3522599E+00  0.1725585E+01
0.1731235E+01  0.3304535E+00  0.1710249E+01
0.1777870E+01  0.3654441E+00  0.1752300E+01
0.1748149E+01  0.2821176E+00  0.1725352E+01
0.1732875E+01  0.3039003E+00  0.1711678E+01
0.1708314E+01  0.2807181E+00  0.1689792E+01
0.1767650E+01  0.3193756E+00  0.1743121E+01
0.1372661E+01  0.1704076E+00  0.1370210E+01
0.1411157E+01  0.2494459E+00  0.1410761E+01
0.1448000E+01  0.2246098E+00  0.1445405E+01
0.1360382E+01  0.2278583E+00  0.1361471E+01
0.1433680E+01  0.2431125E+00  0.1432252E+01
0.1388814E+01  0.2314916E+00  0.1388844E+01
0.1314549E+01  0.2124991E+00  0.1317092E+01
0.1404157E+01  0.2007613E+00  0.1402707E+01
0.1415035E+01  0.1072182E+00  0.1404517E+01
0.1520299E+01  0.1091515E+00  0.1504779E+01
0.1459010E+01  0.1690672E+00  0.1453483E+01
0.1436337E+01  0.2690050E+00  0.1435072E+01
0.1443480E+01  0.1263360E+00  0.1434898E+01
0.1625000E+01  0.0000000E+00  0.1593969E+01
0.1414954E+01  0.2197329E+00  0.1413562E+01
0.1335299E+01  0.2266424E+00  0.1337301E+01
0.1396801E+01  0.1612344E+00  0.1392665E+01
0.1792033E+01  0.3934232E+00  0.1764839E+01
0.1541310E+01  0.1264947E+00  0.1528173E+01
0.1483859E+01  0.1256971E+00  0.1472447E+01
0.1500341E+01  0.1139400E+00  0.1486677E+01
0.1498380E+01  0.1421255E+00  0.1488370E+01
0.1478242E+01  0.1468909E+00  0.1470088E+01
0.1453147E+01  0.1972183E+00  0.1449382E+01
0.1348833E+01  0.2067866E+00  0.1349794E+01
0.1368157E+01  0.2800764E+00  0.1369971E+01
0.1250000E+01  0.0000000E+00  0.1233502E+01
0.1496272E+01  0.2780308E-01  0.1471270E+01
0.1430228E+01  0.1622338E+00  0.1424814E+01
0.1544491E+01  0.1012427E+00  0.1526117E+01
0.1505524E+01  0.5428530E-01  0.1482359E+01
0.1576405E+01  0.1180891E+00  0.1559904E+01
0.1526885E+01  0.8834234E-01  0.1505656E+01
0.1558557E+01  0.6358195E-01  0.1534155E+01
0.1372206E+01  0.9428859E-01  0.1359826E+01
0.1414069E+01  0.8636887E-01  0.1399475E+01
0.1351230E+01  0.1581055E+00  0.1348817E+01
0.1371634E+01  0.2528708E+00  0.1372933E+01
0.1392978E+01  0.2694234E+00  0.1393601E+01
0.1321668E+01  0.2603105E+00  0.1325147E+01
0.1392566E+01  0.3027057E+00  0.1393638E+01
0.1345601E+01  0.2495441E+00  0.1347852E+01
0.1349996E+01  0.1827855E+00  0.1349551E+01
0.1475238E+01  0.9618066E-01  0.1458635E+01
0.1487372E+01  0.4556180E+00  0.1484782E+01
0.1432024E+01  0.3509343E+00  0.1431649E+01
0.1619231E+01  0.5383449E+00  0.1607354E+01
0.1532505E+01  0.4233173E+00  0.1527034E+01
0.1547332E+01  0.4788657E+00  0.1541157E+01
0.1627786E+01  0.4750493E+00  0.1615701E+01
0.1750658E+01  0.4911384E+00  0.1726940E+01
0.1783313E+01  0.5336292E+00  0.1755215E+01
0.1744147E+01  0.5299352E+00  0.1720033E+01
0.1772978E+01  0.5077787E+00  0.1746259E+01
0.1739682E+01  0.5092411E+00  0.1716326E+01
0.1715917E+01  0.5251974E+00  0.1694847E+01
0.1809547E+01  0.4999146E+00  0.1778633E+01
0.1486188E+01  0.5335558E+00  0.1483749E+01
0.1695320E+01  0.5058771E+00  0.1676795E+01
0.1793562E+01  0.5145404E+00  0.1764253E+01
0.1827482E+01  0.5355643E+00  0.1795095E+01
0.1805457E+01  0.5332234E+00  0.1775024E+01
0.1812320E+01  0.5734372E+00  0.1781615E+01
0.1794794E+01  0.5557356E+00  0.1765715E+01
0.1637325E+01  0.5533192E+00  0.1623836E+01
0.1761146E+01  0.5591762E+00  0.1735376E+01
0.1789115E+01  0.5788851E+00  0.1760383E+01
0.1693317E+01  0.6123782E+00  0.1675318E+01
0.1522396E+01  0.5359490E+00  0.1517826E+01
0.1814654E+01  0.6254783E+00  0.1783746E+01
0.1726166E+01  0.5505978E+00  0.1703676E+01
0.1691322E+01  0.5307786E+00  0.1673113E+01
0.1516987E+01  0.5143680E+00  0.1512928E+01
0.1661909E+01  0.5147686E+00  0.1646173E+01
0.1761865E+01  0.6508066E+00  0.1736379E+01
0.1692174E+01  0.5698207E+00  0.1673957E+01
0.1780214E+01  0.6037461E+00  0.1752775E+01
[...]
POINT_DATA    3280
SCALARS hauteur float
LOOKUP_TABLE DEFAULT
       2.1984543E-02
       9.8094543E-05
       2.5104324E-04
       2.2043943E-02
       1.1756644E-02
       1.1814127E-02
       2.7016926E-02
       3.8510214E-03
       1.4155098E-02
       2.5373795E-02
       2.5303712E-02
       2.2312274E-02
       2.2245850E-02
       2.2536018E-02
       2.3943926E-02
       3.4703434E-04
       2.2419473E-02
       2.4561768E-02
       1.5291365E-02
       2.0452976E-02
       2.3776935E-02
       2.3611143E-02
       2.5508080E-02
       2.4230813E-02
       2.4617528E-02
       2.4747039E-02
       2.3976690E-02
       2.1198098E-02
       2.6987591E-02
       2.4368559E-02
       2.6115990E-02
       2.4922201E-02
       2.5868664E-02
       2.6681293E-02
       2.0284838E-02
       2.3236514E-02
       2.3290708E-02
       2.1395056E-02
       2.0227002E-02
       2.4593409E-02
       2.2165551E-02
       1.9497446E-02
       1.9169371E-02
       2.1006728E-02
       1.7357739E-02
       1.9593940E-02
       2.5121695E-02
       1.8357160E-02
       2.0243562E-02
       2.2697263E-02
       2.1294780E-02
       2.2109809E-02
       1.8857917E-02
       2.6355133E-02
       2.5327240E-02
       2.6228657E-02
       2.2440281E-02
       1.8687484E-02
       2.3446957E-02
       1.7421617E-02
       2.0918883E-02
       1.9954847E-02
       2.2445368E-02
       1.5274202E-02
       2.1517341E-02
       2.1365198E-02
       1.9546287E-02
       3.8149948E-04
       2.6157217E-02
       1.5607990E-02
       2.3213436E-02
       1.6961443E-02
       1.5924644E-02
       2.0254042E-02
       1.0725455E-02
       2.5365502E-02
       2.6751155E-02
       2.7997162E-02
       2.7190176E-02
       2.7036883E-02
       2.8118525E-02
       2.7447996E-02
       2.7561297E-02
       2.7349607E-02
       2.7832962E-02
       2.6491235E-02
       2.8714494E-02
       2.5502148E-02
       2.4317676E-02
       2.4691384E-02
       2.5886363E-02
       2.8215340E-02
       2.9522238E-02
       2.8745277E-02
       2.8920792E-02
       2.4325740E-02
       1.8914816E-02
       1.7964560E-02
       1.7658021E-02
       1.5101452E-02
       1.7320448E-02
       1.6199451E-02
       1.2601910E-02
       1.9431541E-02
       2.0379508E-02
       2.0810556E-02
       2.2511306E-02
       2.0353946E-02
       1.9116965E-02
       2.1755262E-02
       1.6166842E-02
       1.7645034E-02
       1.5765303E-02
       1.9111137E-02
       2.1443254E-02
       2.2737365E-02
       1.1628271E-02
       2.3444250E-02
       2.2181360E-02
       1.3743433E-02
       1.2677542E-02
       1.3110199E-02
       1.3968512E-02
       2.2823977E-02
       2.3875303E-02
       2.5005349E-02
       2.1192695E-02
       1.4353511E-02
       1.4001260E-02
       1.2386408E-02
       8.9265766E-03
       2.2640135E-04
       1.1112354E-02
       1.0692822E-02
       1.0107111E-02
       5.5960598E-03
       7.6549528E-03
       1.8374575E-02
       9.0089991E-03
       6.2937151E-03
       3.1386098E-03
       1.1955509E-02
       1.3523380E-02
       9.8690318E-03
       1.2050005E-02
       1.3344656E-02
       1.5530835E-02
       1.0706096E-02
       2.4911221E-02
       2.7733658E-02
       2.6268058E-02
       2.8206120E-02
       2.7150398E-02
       2.7713521E-02
       2.8746467E-02
       2.6539382E-02
       1.7688459E-02
       1.4784046E-02
       2.3556197E-02
       2.7367029E-02
       2.0191266E-02
       1.3611476E-03
       2.6812763E-02
       2.8618747E-02
       2.3706281E-02
       8.5279836E-03
       1.7586700E-02
       1.8165740E-02
       1.6243187E-02
       1.9858011E-02
       2.1312710E-02
       2.5201052E-02
       2.7847603E-02
       2.9085762E-02
       8.4189789E-03
       4.8247219E-03
       2.3095130E-02
       1.2412990E-02
       6.8452124E-03
       1.4922532E-02
       9.2073562E-03
       6.6658112E-03
       1.4972994E-02
       1.3593955E-02
       2.4521536E-02
       2.8640963E-02
       2.8389882E-02
       2.9824892E-02
       2.8830211E-02
       2.9072647E-02
       2.6464715E-02
       1.2803773E-02
       2.7058494E-02
       2.8170412E-02
       2.0399534E-02
       2.5077455E-02
       2.4668314E-02
       2.0362445E-02
       1.1178491E-02
       7.4495593E-03
       1.0653049E-02
       8.6228383E-03
       1.1322118E-02
       1.3134742E-02
       5.1562303E-03
       2.7186294E-02
       1.5267746E-02
       6.4431579E-03
       4.0415139E-03
       5.5557821E-03
       5.4212511E-03
       6.6976283E-03
       1.9147824E-02
       9.3358580E-03
       6.9313942E-03
       1.5754932E-02
       2.5776256E-02
       5.2651402E-03
       1.1918322E-02
       1.5505193E-02
       2.6179351E-02
       1.7391325E-02
       9.6334682E-03
       1.5513996E-02
       8.0471386E-03
       2.3733754E-02
       1.7022731E-02
       1.0406456E-02
       2.2717296E-02
       1.6831415E-02
       1.1757123E-02
       1.1041451E-02
       1.3744274E-02
       1.3657778E-02
       4.7162061E-03
       6.6589128E-03
       4.3311980E-04
       1.0843480E-02
       2.9283085E-03
       8.1135442E-03
       9.5282089E-03
       1.6846431E-02
       1.4065590E-02
       7.0494148E-03
       4.5959331E-03
       4.6841345E-03
       6.2782582E-03
       7.5471482E-03
       7.6626127E-03
       9.9525930E-03
       2.0503771E-02
       2.6990599E-02
       1.6809551E-02
       1.8623819E-02
       2.0888646E-02
       2.2115481E-02
       6.4540016E-03
       9.5167634E-03
       6.1005733E-03
       2.7292149E-03
       2.4086024E-03
       3.6699968E-03
       1.1043428E-02
       1.0930106E-02
       2.7353365E-03
       1.5504307E-02
       5.2330549E-03
       1.4245126E-02
       3.8197646E-03
       8.3975392E-04
       1.0151464E-02
       1.8404245E-02
       1.7184205E-02
       1.9132431E-02
       8.9161295E-03
       1.7860140E-02
       2.2296677E-02
       2.1494617E-02
       2.6005817E-02
       2.4562723E-02
       2.1695487E-02
       2.5425179E-02
       1.2708904E-02
       6.4055959E-03
       2.1785799E-02
       9.4569398E-03
       2.0842147E-02
       6.8610970E-03
       2.8269611E-02
       2.8520811E-02
       2.9267640E-02
       2.9746786E-02
       3.0020544E-02
       2.6720551E-02
       2.5941854E-02
       2.7811091E-02
       2.5504011E-02
       2.5789869E-02
       2.2095119E-02
       2.4817045E-02
       1.8739229E-02
       2.4411978E-02
       2.3576126E-02
       6.5766681E-03
       4.4066437E-03
       3.5346770E-03
       9.0189754E-03
       1.7547735E-02
       3.9627466E-03
       5.9178150E-03
       1.9451728E-02
       2.2337237E-02
       5.9018468E-03
       1.4597705E-02
       6.3363795E-03
       1.3038888E-02
       1.0140815E-02
       1.1929684E-02
       1.2021846E-02
       6.1442793E-03
       3.2536376E-03
       1.1830021E-04
       8.0441196E-03
       1.8126173E-03
       1.0862299E-02
       7.4589741E-03
       1.8067836E-02
       4.1165930E-04
       4.1680956E-03
       9.9210284E-03
       8.7719335E-03
       1.5782671E-02
       1.3452990E-02
       3.4420249E-03
       2.1148503E-02
       1.6238316E-03
       1.2987014E-02
       2.4026077E-02
       1.4283781E-03
       7.3090971E-04
       1.5325242E-02
       1.5128434E-02
       1.6630649E-02
       1.6741688E-02
       8.2321411E-03
       1.7494695E-02
       1.6414284E-02
       1.7012299E-02
       1.8934108E-02
       1.5855869E-02
       1.0745436E-02
       1.4365199E-02
       1.5528447E-02
       5.0699818E-04
       4.3057849E-03
       4.4521044E-03
       6.5108472E-03
       3.7574905E-03
       3.8075901E-03
       1.7325255E-03
       1.6912399E-03
       1.0868995E-03
       1.7166701E-02
       1.9091205E-02
       1.6440002E-02
       1.3550376E-02
       1.7474010E-02
       1.1281402E-02
       5.2287689E-03
       9.6136143E-03
       5.8053846E-03
       4.5760926E-03
       3.2358212E-03
       4.7858827E-03
       5.8280250E-03
       2.7817767E-02
       3.1043798E-02
       2.9354025E-02
       2.9937576E-02
       3.0843338E-02
       2.9528359E-02
       3.0383904E-02
       3.1341020E-02
       3.1051418E-02
       3.2160829E-02
       3.0557388E-02
       3.1659862E-02
       3.2671190E-02
       3.2093336E-02
       3.1770340E-02
       3.1878241E-02
       3.0986537E-02
       2.9706065E-02
       2.9240456E-02
       2.9096930E-02
       2.9038908E-02
       2.9998934E-02
       3.0584849E-02
       3.0705237E-02
       2.7447301E-02
       2.4620150E-02
       2.7675483E-02
       2.6314384E-02
       2.4867733E-02
       2.9921272E-02
       3.1044808E-02
       3.0702057E-02
       3.0362279E-02
       3.0347655E-02
       3.0912946E-02
       3.2168394E-02
       3.1616596E-02
       3.0185411E-02
       3.1516871E-02
       3.2068124E-02
       3.2229583E-02
       3.1573731E-02
       3.0612107E-02
       3.0963295E-02
       3.3454368E-02
       3.1455808E-02
       3.3260676E-02
       3.2798467E-02
       3.2739688E-02
       3.2763350E-02
       3.3757504E-02
       3.3192580E-02
       3.3035211E-02
       3.2728571E-02
       3.3202549E-02
       3.4226192E-02
       3.3663291E-02
       3.3986247E-02
       3.3156106E-02
       3.4991877E-02
       3.2773950E-02
       3.4317080E-02
       3.1887020E-02
       3.3710193E-02
       3.4565411E-02
       3.5272483E-02
       3.5104492E-02
       3.6090602E-02
       3.5589528E-02
       3.5004593E-02
       3.4047272E-02
       3.2522933E-02
       3.3212547E-02
       3.5623905E-02
       3.5762612E-02
       3.5900449E-02
       3.6708688E-02
       3.6393911E-02
       3.4781441E-02
       3.6347182E-02
       3.1998117E-02
       3.2975620E-02
       3.6216678E-02
       3.6134839E-02
       3.5612329E-02
       3.6204359E-02
       3.6599642E-02
       3.1199009E-02
       3.2955705E-02
       3.7214021E-02
       3.2389913E-02
       3.3999802E-02
       3.6823570E-02
       3.7112616E-02
       3.1259629E-02
       3.3586648E-02
       3.4158149E-02
       3.6731921E-02
       3.7182262E-02
       3.7100188E-02
       3.7998017E-02
       3.7688887E-02
       3.1800486E-02
       3.1202316E-02
       3.2061468E-02
       2.9766001E-02
       3.2156717E-02
       3.0509406E-02
       3.0570794E-02
       3.0385131E-02
       3.7713439E-02
       3.8781628E-02
       2.9529306E-02
       3.7494708E-02
       3.7995830E-02
       3.7527317E-02
       3.8318012E-02
       2.8777150E-02
       2.9953393E-02
       2.9328986E-02
       2.8382903E-02
       2.9026867E-02
       2.9203529E-02
       3.7778010E-02
       3.7255182E-02
       3.8269379E-02
       3.7502115E-02
       2.8227354E-02
       2.7618393E-02
       3.6902730E-02
       3.8805621E-02
       3.8106232E-02
       3.6353962E-02
       2.7905986E-02
       3.8691268E-02
       3.6894328E-02
       3.6226207E-02
       2.8715069E-02
       3.8101433E-02
       3.8740724E-02
       3.7368169E-02
       3.9700690E-02
       3.7438113E-02
       3.9361058E-02
       3.9240743E-02
       3.9235868E-02
       3.9476996E-02
       3.9176645E-02
       3.8705670E-02
       3.8554618E-02
       4.0068581E-02
       3.9653880E-02
       4.0288851E-02
       3.9693626E-02
       3.9940103E-02
       2.7852461E-02
       4.8371059E-03
       3.0741478E-03
       1.2623638E-03
       2.2052922E-03
       1.3539988E-03
       1.9789566E-03
       1.8119055E-03
       2.6300176E-03
       2.9906193E-03
       2.5577213E-03
       3.4924622E-03
       2.0669081E-04
       3.4464337E-04
       1.5629246E-03
       1.7844372E-03
       1.1139484E-03
       6.3236445E-04
       1.8820333E-03
       4.2985611E-04
       4.4401196E-04
       1.2059660E-03
       7.5832412E-04
       4.3969043E-04
       7.0013912E-04
       2.1426470E-04
       2.6877819E-02
       1.7867257E-02
       1.6545206E-02
       1.9676027E-02
       1.7909324E-02
       1.8573750E-02
       2.0178997E-02
       2.5213233E-02
       2.3150462E-02
       2.4393320E-02
       2.5588773E-02
       2.3464997E-02
       2.4416714E-02
       2.2092779E-02
       2.4673699E-02
       2.5727411E-02
       2.4897739E-02
       2.6673514E-02
       2.7510382E-02
       2.6536904E-02
       2.5206337E-02
       2.3062598E-02
       2.4157972E-02
       2.3105928E-02
       2.3902348E-02
       2.4994008E-02
       2.4100173E-02
       2.2891495E-02
       2.3956708E-02
       2.3314645E-02
       2.3815358E-02
       2.1252646E-02
       2.3789794E-02
       2.1636412E-02
       2.5170116E-02
       2.2762733E-02
       2.4819149E-02
       2.5927145E-02
       2.2205512E-02
       2.2596967E-02
       2.3768412E-02
       2.6004779E-02
       2.6906594E-02
       2.6190047E-02
       2.5139462E-02
       2.7690186E-02
       2.5820793E-02
       2.6343308E-02
       2.5812816E-02
       2.4724279E-02
       2.6871138E-02
       2.6796955E-02
       2.8338038E-02
       2.6950202E-02
       2.7622974E-02
       2.9142260E-02
       2.8413688E-02
       2.9644549E-02
       8.6657235E-03
       1.1129660E-02
       1.3209526E-02
       1.4315249E-02
       1.3770871E-02
       1.2273317E-02
       4.3896922E-03
       1.1021296E-03
       4.8092337E-03
       2.0990804E-03
       1.4852608E-02
       1.9502367E-02
       1.2408904E-02
       1.0879953E-02
       1.7507575E-02
       1.8011392E-02
       1.5978178E-02
       1.3450583E-02
       1.3906501E-02
       1.5299082E-02
       1.5638711E-02
       1.7514295E-02
       1.1600627E-02
       9.5405370E-03
       1.1851375E-02
       1.1704767E-02
       9.1536460E-03
       1.0311608E-02
       1.1802466E-02
       5.8848652E-03
       5.8002651E-03
       8.1797951E-03
       5.6672307E-03
       7.2751643E-03
       7.3204779E-03
       1.2922008E-02
       5.6187837E-03
       7.7975842E-03
       4.4440553E-03
       2.1779773E-03
       2.2100236E-03
       1.3082457E-03
       2.0307905E-02
       1.9283904E-02
       1.8905322E-02
       6.0687683E-03
       7.0899699E-03
       7.7969789E-03
       5.2777765E-03
       5.4779862E-03
       3.7455344E-03
       2.7744131E-02
       2.6895732E-02
       2.8682314E-02
       2.6872258E-02
       2.8851921E-02
       2.5147460E-02
       3.0044921E-02
       2.4702223E-02
       3.1154315E-02
       2.9844499E-02
       2.6827328E-02
       2.8106621E-02
       1.6967299E-02
       3.0701372E-02
       2.1829102E-02
       2.2114895E-02
       1.0320734E-02
       2.0732137E-02
       3.1840865E-02
       1.4166939E-02
       1.1201145E-02
       1.4420742E-02
       1.4125988E-02
       3.0339473E-02
       3.1794048E-02
       2.4089354E-02
       2.2725322E-02
       3.1441889E-02
       3.3445527E-02
       3.3613733E-02
       3.1392187E-02
       3.3520743E-02
       3.5200430E-02
       3.4763084E-02
       3.7558432E-02
       3.6393205E-02
       3.8403628E-02
       3.8077910E-02
       3.8710420E-02
       3.8037238E-02
       3.8674823E-02
       3.9764917E-02
       3.9235578E-02
       3.9216126E-02
       3.9411783E-02
       3.6565292E-02
       3.7142428E-02
       3.5532534E-02
       3.6779270E-02
       3.8985057E-02
       3.9156041E-02
       3.8421657E-02
       3.8160332E-02
       3.8507070E-02
       3.9999758E-02
       4.1042584E-02
       2.6907695E-03
       4.4780513E-04
       9.0213065E-04
       2.9768049E-04
       2.0556048E-02
       2.1663906E-02
       1.9040448E-02
       2.0374025E-02
       2.0973777E-02
       2.6766477E-02
       2.8671753E-02
       2.8277405E-02
       2.1893959E-02
       2.0632566E-02
       1.9883045E-02
       2.5853535E-02
       2.4998939E-02
       2.2043832E-02
       2.8313087E-02
       3.0538800E-02
       1.7397221E-03
       8.7194959E-04
       2.7300782E-03
       1.2024073E-03
       1.6460413E-03
       4.5761915E-03
       3.7631631E-04
       1.5276722E-03
       1.5021055E-04
       3.0749160E-04
       3.8963902E-04
       6.0019009E-04
       2.6845859E-04
       7.1709656E-04
       1.7762937E-04
       7.0398339E-03
       8.7721379E-03
       2.2657282E-03
       3.2736319E-03
       1.7747744E-02
       1.8384204E-02
       2.0181944E-02
       2.0208011E-02
       2.1124960E-02
       2.2080008E-02
       2.2645785E-02
       1.0638348E-02
       9.9663589E-03
       1.4140154E-02
       1.5158829E-02
       5.0827173E-03
       1.2218565E-02
       1.3379552E-02
       3.0292700E-03
       1.2389279E-02
       1.5070465E-02
       1.6697546E-02
       1.6641979E-02
       1.7881906E-02
       1.6355726E-02
       7.5471766E-04
       1.8207386E-02
       1.4496065E-02
       1.7828471E-02
       1.3455341E-02
       1.3682408E-02
       1.3024819E-02
       6.2559622E-03
       9.9769752E-03
       7.7910196E-03
       9.0536992E-03
       7.5489819E-03
       3.3346805E-03
       1.3294095E-03
       1.7249877E-02
       1.6426288E-02
       1.8704127E-02
       9.3520975E-03
       9.5133566E-03
       8.0581507E-03
       1.1773649E-02
       1.0276467E-02
       9.1287583E-03
       1.3967223E-02
       4.4092334E-03
       1.3159752E-03
       8.9575774E-04
       2.2158887E-02
       1.7521392E-02
       1.1861114E-02
       1.4006103E-02
       1.1320349E-02
       1.6275550E-02
       1.8701045E-02
       1.7581528E-02
       3.2656924E-02
       3.4555921E-02
       3.4619639E-02
       3.4878925E-02
       3.4807755E-02
       3.5263265E-02
       3.4201070E-02
       3.4057749E-02
       3.4700672E-02
       3.4059206E-02
       3.7603067E-02
       3.7963217E-02
       4.3145177E-02
       3.8093030E-02
       3.6306629E-02
       4.0629845E-02
       3.9828106E-02
       4.0638396E-02
       3.9888013E-02
       3.8500748E-02
       4.1772674E-02
       3.3629176E-02
       4.1315897E-02
       4.2510978E-02
       3.6614490E-02
       3.2465795E-02
       4.2458982E-02
       4.2056778E-02
       4.0146936E-02
       4.0387348E-02
       4.0675489E-02
       3.3996235E-02
       4.1484274E-02
       3.6626037E-02
       4.1042900E-02
       3.5417225E-02
       4.2126547E-02
       4.0796307E-02
       4.1586586E-02
       4.1208780E-02
       4.1700195E-02
       4.0316967E-02
       4.2254249E-02
       3.8479168E-02
       4.1953622E-02
       3.8079288E-02
       3.7165348E-02
       4.1665374E-02
       4.2339278E-02
       3.8591736E-02
       3.7218874E-02
       1.7938274E-02
       4.2855223E-02
       1.5524232E-02
       4.3254290E-02
       3.8983459E-02
       4.2958811E-02
       3.5190162E-02
       3.4092132E-02
       4.3053582E-02
       4.3453113E-02
       4.3452451E-02
       4.4083617E-02
       4.2767139E-02
       4.2611776E-02
       3.8144111E-02
       3.6062987E-02
       3.7673901E-02
       3.5666947E-02
       3.5079867E-02
       4.1003722E-02
       3.6655189E-02
       3.7608991E-02
       3.4640907E-02
       3.5091001E-02
       3.6822074E-02
       4.4746752E-02
       3.9178969E-02
       4.1876739E-02
       3.6058683E-02
       4.1641608E-02
       3.6551161E-02
       3.5952239E-02
       3.4930685E-02
       3.4045672E-02
       3.5397247E-02
       3.5823887E-02
       3.6007844E-02
       3.5617621E-02
       3.5101719E-02
       3.5522371E-02
       3.4617096E-02
       3.5449401E-02
       3.3903822E-02
       3.3571876E-02
       3.4225417E-02
       3.3528230E-02
       3.4231741E-02
       3.4866903E-02
       3.4398255E-02
       3.3641371E-02
       3.2908287E-02
       3.2711642E-02
       3.2575566E-02
       3.1518690E-02
       3.3247213E-02
       3.3551687E-02
       3.6992526E-02
       3.8912936E-02
       3.7943666E-02
       3.8372856E-02
       3.9780622E-02
       4.0663615E-02
       4.0359572E-02
       4.0641920E-02
       4.0377166E-02
       3.9888838E-02
       4.0795964E-02
       4.0234270E-02
       4.1430998E-02
       4.0290197E-02
       4.1303619E-02
       4.0948391E-02
       4.1781916E-02
       4.0642579E-02
       4.0789320E-02
       4.0703749E-02
       3.9837585E-02
       4.1179747E-02
       4.0320691E-02
       4.0190690E-02
       4.0945681E-02
       4.1016769E-02