# vtk DataFile Version 3.0
# Solution du M1 TR
ASCII
DATASET UNSTRUCTURED_GRID
POINTS   3280  float
0.0000000E+00  0.0000000E+00  0.4802815E-02
0.2000000E+01  0.0000000E+00  0.1960133E+01
0.2000000E+01  0.1000000E+01  0.1960133E+01
0.0000000E+00  0.1000000E+01  0.4993910E-02
0.1000000E+01  0.0000000E+00  0.9800670E+00
0.1000000E+01  0.1000000E+01  0.9800669E+00
0.1500000E+01  0.5000000E+00  0.1475767E+01
0.1500000E+01  0.0000000E+00  0.1470100E+01
0.1723284E+01  0.3570951E+00  0.1694600E+01
0.1500000E+01  0.2500000E+00  0.1475767E+01
0.1515103E+01  0.2763186E+00  0.1490570E+01
0.1594866E+01  0.2826386E+00  0.1568742E+01
0.1562500E+01  0.1875000E+00  0.1537021E+01
0.1534357E+01  0.1819434E+00  0.1509439E+01
0.1561083E+01  0.3343258E+00  0.1535633E+01
0.1750000E+01  0.0000000E+00  0.1715117E+01
0.1503267E+01  0.1622339E+00  0.1478967E+01
0.1514910E+01  0.2261192E+00  0.1490380E+01
0.1610795E+01  0.1290247E+00  0.1584049E+01
0.1539062E+01  0.1536458E+00  0.1514039E+01
0.1510772E+01  0.1982718E+00  0.1486324E+01
0.1541862E+01  0.2179813E+00  0.1516795E+01
0.1475030E+01  0.2178147E+00  0.1451295E+01
0.1539206E+01  0.2578835E+00  0.1514191E+01
0.1521085E+01  0.2465697E+00  0.1496432E+01
0.1496499E+01  0.2146241E+00  0.1472336E+01
0.1481433E+01  0.1870688E+00  0.1457570E+01
0.1586261E+01  0.1960616E+00  0.1560308E+01
0.1460896E+01  0.2899333E+00  0.1437443E+01
0.1542195E+01  0.2867649E+00  0.1517121E+01
0.1486080E+01  0.2754813E+00  0.1462124E+01
0.1536278E+01  0.3247610E+00  0.1511322E+01
0.1510131E+01  0.3295675E+00  0.1485696E+01
0.1455545E+01  0.2514402E+00  0.1432198E+01
0.1610995E+01  0.1909452E+00  0.1584549E+01
0.1564462E+01  0.2395252E+00  0.1538945E+01
0.1571524E+01  0.3026484E+00  0.1545865E+01
0.1613657E+01  0.2555806E+00  0.1587159E+01
0.1633998E+01  0.2714643E+00  0.1607094E+01
0.1534973E+01  0.3650914E+00  0.1510044E+01
0.1583157E+01  0.2286349E+00  0.1557267E+01
0.1586501E+01  0.1581416E+00  0.1560524E+01
0.1651985E+01  0.2274641E+00  0.1624723E+01
0.1619170E+01  0.2936434E+00  0.1592562E+01
0.1678889E+01  0.2641389E+00  0.1651090E+01
0.1642286E+01  0.2930521E+00  0.1615217E+01
0.1526415E+01  0.3446283E+00  0.1501655E+01
0.1662420E+01  0.3044259E+00  0.1634950E+01
0.1636786E+01  0.2469276E+00  0.1609827E+01
0.1588953E+01  0.3366240E+00  0.1562947E+01
0.1616427E+01  0.3314099E+00  0.1589873E+01
0.1598305E+01  0.3102698E+00  0.1572112E+01
0.1655410E+01  0.2614708E+00  0.1628080E+01
0.1487553E+01  0.3072167E+00  0.1463568E+01
0.1520126E+01  0.3036443E+00  0.1495493E+01
0.1477894E+01  0.2544664E+00  0.1454102E+01
0.1567847E+01  0.2133479E+00  0.1542262E+01
0.1663947E+01  0.3299725E+00  0.1636446E+01
0.1567022E+01  0.2696000E+00  0.1541454E+01
0.1678598E+01  0.3509559E+00  0.1650806E+01
0.1611933E+01  0.3827205E+00  0.1585469E+01
0.1640491E+01  0.3197373E+00  0.1613458E+01
0.1588015E+01  0.2526666E+00  0.1562028E+01
0.1708471E+01  0.3144917E+00  0.1680082E+01
0.1606944E+01  0.3564315E+00  0.1580579E+01
0.1604614E+01  0.2314093E+00  0.1578296E+01
0.1643491E+01  0.3631133E+00  0.1616398E+01
0.2000000E+01  0.5000000E+00  0.1960134E+01
0.1494727E+01  0.3621796E+00  0.1470600E+01
0.1701807E+01  0.3477237E+00  0.1673551E+01
0.1572156E+01  0.3701847E+00  0.1546485E+01
0.1688392E+01  0.3285111E+00  0.1660404E+01
0.1695932E+01  0.3904821E+00  0.1667794E+01
0.1636337E+01  0.3418163E+00  0.1609387E+01
0.1505941E+01  0.9448485E-01  0.1477233E+01
0.1423727E+01  0.1910920E+00  0.1401015E+01
0.1481447E+01  0.3359634E+00  0.1457584E+01
0.1441613E+01  0.3726133E+00  0.1418544E+01
0.1466699E+01  0.3599060E+00  0.1443130E+01
0.1476682E+01  0.4107296E+00  0.1452915E+01
0.1434448E+01  0.3273535E+00  0.1411522E+01
0.1464523E+01  0.3867258E+00  0.1440998E+01
0.1456903E+01  0.3373583E+00  0.1433530E+01
0.1454188E+01  0.3132491E+00  0.1430869E+01
0.1424069E+01  0.2919612E+00  0.1401350E+01
0.1490969E+01  0.3884111E+00  0.1466916E+01
0.1428051E+01  0.4202828E+00  0.1405252E+01
0.1513790E+01  0.3782958E+00  0.1489282E+01
0.1547789E+01  0.4092466E+00  0.1522604E+01
0.1535154E+01  0.3889763E+00  0.1510221E+01
0.1512699E+01  0.4170463E+00  0.1488213E+01
0.1441554E+01  0.3983607E+00  0.1418487E+01
0.1395941E+01  0.3853832E+00  0.1373782E+01
0.1420578E+01  0.3854393E+00  0.1397928E+01
0.1408336E+01  0.3518173E+00  0.1385930E+01
0.1549967E+01  0.3074339E+00  0.1524738E+01
0.1651639E+01  0.4114272E+00  0.1624383E+01
0.1668616E+01  0.3788978E+00  0.1641022E+01
0.1674624E+01  0.4027285E+00  0.1646911E+01
0.1706988E+01  0.4343785E+00  0.1678629E+01
0.1673984E+01  0.4357547E+00  0.1646283E+01
0.1695270E+01  0.4139894E+00  0.1667145E+01
0.1737273E+01  0.4034108E+00  0.1708311E+01
0.1645630E+01  0.3875965E+00  0.1618494E+01
0.1625874E+01  0.4052508E+00  0.1599132E+01
0.1627808E+01  0.4540126E+00  0.1601027E+01
0.1587158E+01  0.4136289E+00  0.1561188E+01
0.1633718E+01  0.4293591E+00  0.1606819E+01
0.1651607E+01  0.4466828E+00  0.1624352E+01
0.1605650E+01  0.4356658E+00  0.1579311E+01
0.1682168E+01  0.4808869E+00  0.1654304E+01
0.1671711E+01  0.4594749E+00  0.1644056E+01
0.1698428E+01  0.4596870E+00  0.1670239E+01
0.1646221E+01  0.4851828E+00  0.1619074E+01
0.1607747E+01  0.4151289E+00  0.1581367E+01
0.1584205E+01  0.4841185E+00  0.1558294E+01
0.1747573E+01  0.4622079E+00  0.1718405E+01
0.1568396E+01  0.4481495E+00  0.1542800E+01
0.1601760E+01  0.4629165E+00  0.1575499E+01
0.1723356E+01  0.4540167E+00  0.1694671E+01
0.1732897E+01  0.4294241E+00  0.1704022E+01
0.1722218E+01  0.4972746E+00  0.1693556E+01
0.1715121E+01  0.4754441E+00  0.1686600E+01
0.1584567E+01  0.4345797E+00  0.1558649E+01
0.1563465E+01  0.4258523E+00  0.1537967E+01
0.1534166E+01  0.4440258E+00  0.1509252E+01
0.1615090E+01  0.4918227E+00  0.1588563E+01
0.1717469E+01  0.4134541E+00  0.1688901E+01
0.1718488E+01  0.3909170E+00  0.1689900E+01
0.1741353E+01  0.3769080E+00  0.1712309E+01
0.1781199E+01  0.4241746E+00  0.1751361E+01
0.2000000E+01  0.2500000E+00  0.1960133E+01
0.1756308E+01  0.4199875E+00  0.1726966E+01
0.1762447E+01  0.3937207E+00  0.1732983E+01
0.1765097E+01  0.4438197E+00  0.1735580E+01
0.1807974E+01  0.4625425E+00  0.1777600E+01
0.1789176E+01  0.4471344E+00  0.1759179E+01
0.1514158E+01  0.1287364E+00  0.1489522E+01
0.1777674E+01  0.4803377E+00  0.1747906E+01
0.1811145E+01  0.4395021E+00  0.1780709E+01
0.1850404E+01  0.4566449E+00  0.1819117E+01
0.1748483E+01  0.3522599E+00  0.1719297E+01
0.1731235E+01  0.3304535E+00  0.1702393E+01
0.1777870E+01  0.3654441E+00  0.1748098E+01
0.1748149E+01  0.2821176E+00  0.1718970E+01
0.1732875E+01  0.3039003E+00  0.1704001E+01
0.1708314E+01  0.2807181E+00  0.1679929E+01
0.1767650E+01  0.3193756E+00  0.1738082E+01
0.1372661E+01  0.1704076E+00  0.1350961E+01
0.1411157E+01  0.2494459E+00  0.1388695E+01
0.1448000E+01  0.2246098E+00  0.1424804E+01
0.1360382E+01  0.2278583E+00  0.1338932E+01
0.1433680E+01  0.2431125E+00  0.1410769E+01
0.1388814E+01  0.2314916E+00  0.1366797E+01
0.1314549E+01  0.2124991E+00  0.1294013E+01
0.1404157E+01  0.2007613E+00  0.1381835E+01
0.1415035E+01  0.1072182E+00  0.1391352E+01
0.1520299E+01  0.1091515E+00  0.1494629E+01
0.1459010E+01  0.1690672E+00  0.1435592E+01
0.1436337E+01  0.2690050E+00  0.1413373E+01
0.1443480E+01  0.1263360E+00  0.1420207E+01
0.1625000E+01  0.0000000E+00  0.1592608E+01
0.1414954E+01  0.2197329E+00  0.1392416E+01
0.1335299E+01  0.2266424E+00  0.1314350E+01
0.1396801E+01  0.1612344E+00  0.1374615E+01
0.1792033E+01  0.3934232E+00  0.1761978E+01
0.1541310E+01  0.1264947E+00  0.1516063E+01
0.1483859E+01  0.1256971E+00  0.1459617E+01
0.1500341E+01  0.1139400E+00  0.1475431E+01
0.1498380E+01  0.1421255E+00  0.1474136E+01
0.1478242E+01  0.1468909E+00  0.1454418E+01
0.1453147E+01  0.1972183E+00  0.1429849E+01
0.1348833E+01  0.2067866E+00  0.1327613E+01
0.1368157E+01  0.2800764E+00  0.1346552E+01
0.1250000E+01  0.0000000E+00  0.1225084E+01
0.1496272E+01  0.2780308E-01  0.1466449E+01
0.1430228E+01  0.1622338E+00  0.1407378E+01
0.1544491E+01  0.1012427E+00  0.1517394E+01
0.1505524E+01  0.5428530E-01  0.1475584E+01
0.1576405E+01  0.1180891E+00  0.1550030E+01
0.1526885E+01  0.8834234E-01  0.1497109E+01
0.1558557E+01  0.6358195E-01  0.1527724E+01
0.1372206E+01  0.9428859E-01  0.1346484E+01
0.1414069E+01  0.8636887E-01  0.1386791E+01
0.1351230E+01  0.1581055E+00  0.1329953E+01
0.1371634E+01  0.2528708E+00  0.1349960E+01
0.1392978E+01  0.2694234E+00  0.1370879E+01
0.1321668E+01  0.2603105E+00  0.1300990E+01
0.1392566E+01  0.3027057E+00  0.1370475E+01
0.1345601E+01  0.2495441E+00  0.1324446E+01
0.1349996E+01  0.1827855E+00  0.1328753E+01
0.1475238E+01  0.9618066E-01  0.1447541E+01
0.1487372E+01  0.4556180E+00  0.1463391E+01
0.1432024E+01  0.3509343E+00  0.1409146E+01
0.1619231E+01  0.5383449E+00  0.1592622E+01
0.1532505E+01  0.4233173E+00  0.1507624E+01
0.1547332E+01  0.4788657E+00  0.1522156E+01
0.1627786E+01  0.4750493E+00  0.1601006E+01
0.1750658E+01  0.4911384E+00  0.1721429E+01
0.1783313E+01  0.5336292E+00  0.1753432E+01
0.1744147E+01  0.5299352E+00  0.1715047E+01
0.1772978E+01  0.5077787E+00  0.1743303E+01
0.1739682E+01  0.5092411E+00  0.1710671E+01
0.1715917E+01  0.5251974E+00  0.1687380E+01
0.1809547E+01  0.4999146E+00  0.1779137E+01
0.1486188E+01  0.5335558E+00  0.1462230E+01
0.1695320E+01  0.5058771E+00  0.1667194E+01
0.1793562E+01  0.5145404E+00  0.1763477E+01
0.1827482E+01  0.5355643E+00  0.1796695E+01
0.1805457E+01  0.5332234E+00  0.1775133E+01
0.1812320E+01  0.5734372E+00  0.1781859E+01
0.1794794E+01  0.5557356E+00  0.1764684E+01
0.1637325E+01  0.5533192E+00  0.1610355E+01
0.1761146E+01  0.5591762E+00  0.1731708E+01
0.1789115E+01  0.5788851E+00  0.1759119E+01
0.1693317E+01  0.6123782E+00  0.1665230E+01
0.1522396E+01  0.5359490E+00  0.1497717E+01
0.1814654E+01  0.6254783E+00  0.1784143E+01
0.1726166E+01  0.5505978E+00  0.1697425E+01
0.1691322E+01  0.5307786E+00  0.1663275E+01
0.1516987E+01  0.5143680E+00  0.1492416E+01
0.1661909E+01  0.5147686E+00  0.1634449E+01
0.1761865E+01  0.6508066E+00  0.1732413E+01
0.1692174E+01  0.5698207E+00  0.1664110E+01
0.1780214E+01  0.6037461E+00  0.1750395E+01
[...]
POINT_DATA    3280
SCALARS hauteur float
LOOKUP_TABLE DEFAULT
       4.8028152E-03
       9.9999999E-09
       9.9999999E-09
       4.9939096E-03
       4.2893539E-07
       2.7851982E-07
       5.6673942E-03
       8.4178272E-08
       5.6673939E-03
       5.6673941E-03
       5.6673942E-03
       5.6673942E-03
       5.6671680E-03
       5.6666138E-03
       5.6673942E-03
       9.9999999E-09
       5.6653919E-03
       5.6673923E-03
       5.3620293E-03
       5.6551390E-03
       5.6673282E-03
       5.6673786E-03
       5.6673887E-03
       5.6673940E-03
       5.6673937E-03
       5.6673898E-03
       5.6670956E-03
       5.6664323E-03
       5.6673942E-03
       5.6673942E-03
       5.6673942E-03
       5.6673942E-03
       5.6673942E-03
       5.6673941E-03
       5.6671331E-03
       5.6673915E-03
       5.6673942E-03
       5.6673940E-03
       5.6673942E-03
       5.6673942E-03
       5.6673501E-03
       5.6471118E-03
       5.6673922E-03
       5.6673942E-03
       5.6673942E-03
       5.6673942E-03
       5.6673942E-03
       5.6673942E-03
       5.6673940E-03
       5.6673942E-03
       5.6673942E-03
       5.6673942E-03
       5.6673942E-03
       5.6673942E-03
       5.6673942E-03
       5.6673941E-03
       5.6673312E-03
       5.6673942E-03
       5.6673941E-03
       5.6673942E-03
       5.6673942E-03
       5.6673942E-03
       5.6673931E-03
       5.6673941E-03
       5.6673942E-03
       5.6673786E-03
       5.6673942E-03
       3.6702936E-07
       5.6673942E-03
       5.6673941E-03
       5.6673942E-03
       5.6673942E-03
       5.6673942E-03
       5.6673942E-03
       1.3109262E-03
       5.6669456E-03
       5.6673942E-03
       5.6673942E-03
       5.6673942E-03
       5.6673942E-03
       5.6673942E-03
       5.6673942E-03
       5.6673942E-03
       5.6673942E-03
       5.6673942E-03
       5.6673942E-03
       5.6673942E-03
       5.6673942E-03
       5.6673942E-03
       5.6673942E-03
       5.6673942E-03
       5.6673942E-03
       5.6673942E-03
       5.6673942E-03
       5.6673942E-03
       5.6673942E-03
       5.6673942E-03
       5.6673942E-03
       5.6673942E-03
       5.6673942E-03
       5.6673942E-03
       5.6673942E-03
       5.6673939E-03
       5.6673942E-03
       5.6673942E-03
       5.6673942E-03
       5.6673942E-03
       5.6673942E-03
       5.6673942E-03
       5.6673942E-03
       5.6673942E-03
       5.6673942E-03
       5.6673942E-03
       5.6673942E-03
       5.6673942E-03
       5.6673942E-03
       5.6673931E-03
       5.6673942E-03
       5.6673942E-03
       5.6673942E-03
       5.6673940E-03
       5.6673941E-03
       5.6673941E-03
       5.6673942E-03
       5.6673942E-03
       5.6673942E-03
       5.6673942E-03
       5.6673942E-03
       5.6673941E-03
       5.6673913E-03
       5.6673046E-03
       2.8378310E-08
       5.6673904E-03
       5.6673862E-03
       5.6673872E-03
       5.6653357E-03
       5.6672341E-03
       5.5462902E-03
       5.6673514E-03
       5.6657070E-03
       5.5978050E-03
       5.6673845E-03
       5.6673913E-03
       5.6673003E-03
       5.6673890E-03
       5.6673916E-03
       5.6673941E-03
       5.6673028E-03
       5.6616106E-03
       5.6673938E-03
       5.6673887E-03
       5.6673878E-03
       5.6673939E-03
       5.6673903E-03
       5.6673903E-03
       5.6673380E-03
       4.5230693E-03
       4.6346242E-03
       5.6652203E-03
       5.6673942E-03
       5.5008897E-03
       1.1669948E-07
       5.6673804E-03
       5.6673921E-03
       5.6562875E-03
       5.6672408E-03
       5.4768599E-03
       5.3363786E-03
       4.9974252E-03
       5.6242058E-03
       5.6426160E-03
       5.6673362E-03
       5.6673624E-03
       5.6673942E-03
       3.0623950E-07
       3.4150406E-06
       5.6588403E-03
       3.6900387E-03
       7.0870946E-05
       5.0479190E-03
       6.5986739E-04
       2.3481720E-04
       1.6306550E-03
       9.0942670E-04
       5.6573877E-03
       5.6673940E-03
       5.6673941E-03
       5.6673942E-03
       5.6673942E-03
       5.6673940E-03
       5.6667207E-03
       1.7098569E-03
       5.6673942E-03
       5.6673942E-03
       5.6673942E-03
       5.6673942E-03
       5.6673942E-03
       5.6673942E-03
       5.6673922E-03
       5.6671932E-03
       5.6673923E-03
       5.6673417E-03
       5.6673925E-03
       5.6673941E-03
       5.6605764E-03
       5.6673942E-03
       5.6673942E-03
       5.6665144E-03
       5.6409788E-03
       5.6644998E-03
       5.6649952E-03
       5.6664099E-03
       5.6673942E-03
       5.6673525E-03
       5.6671898E-03
       5.6673942E-03
       5.6673942E-03
       5.6619590E-03
       5.6673929E-03
       5.6673942E-03
       5.6673942E-03
       5.6673942E-03
       5.6673737E-03
       5.6673942E-03
       5.6673207E-03
       5.6673942E-03
       5.6673942E-03
       5.6673912E-03
       5.6673942E-03
       5.6673942E-03
       5.6673937E-03
       5.6673929E-03
       5.6673941E-03
       5.6673941E-03
       5.6463247E-03
       5.6613575E-03
       7.6811171E-08
       5.6673522E-03
       5.4844202E-03
       5.6671372E-03
       5.6673791E-03
       5.6673942E-03
       5.6673927E-03
       5.6661416E-03
       5.6458926E-03
       5.6483828E-03
       5.6648827E-03
       5.6664673E-03
       5.6650754E-03
       5.6671995E-03
       5.6498037E-03
       5.6672115E-03
       5.4486813E-03
       5.6165538E-03
       5.6634270E-03
       5.5819365E-03
       4.7651414E-04
       1.1510553E-03
       1.8927977E-04
       7.5021166E-07
       6.8884122E-06
       1.4508332E-05
       2.1916180E-03
       4.1654671E-03
       4.7228074E-05
       5.6115691E-03
       4.8276995E-04
       5.4611148E-03
       7.1239641E-05
       1.1956005E-07
       4.4169840E-03
       5.6648442E-03
       5.6464871E-03
       5.6536857E-03
       2.2868437E-04
       5.1059243E-03
       5.5492700E-03
       5.6265786E-03
       5.6648850E-03
       5.6526290E-03
       5.3388076E-03
       5.6663061E-03
       6.9799877E-04
       5.0795296E-08
       5.5884646E-03
       1.4401163E-04
       5.4917260E-03
       1.9344915E-05
       5.6673942E-03
       5.6673942E-03
       5.6673942E-03
       5.6673942E-03
       5.6673942E-03
       5.6673942E-03
       5.6673942E-03
       5.6673942E-03
       5.6673942E-03
       5.6673942E-03
       5.6673942E-03
       5.6673942E-03
       5.6673942E-03
       5.6673942E-03
       5.6673942E-03
       5.6664959E-03
       5.6552879E-03
       5.6031168E-03
       5.6673798E-03
       5.6673942E-03
       5.6233344E-03
       5.6659799E-03
       5.6673942E-03
       5.6673942E-03
       5.6551872E-03
       5.6673942E-03
       5.6645627E-03
       5.6673941E-03
       5.6673612E-03
       5.6673913E-03
       5.6673930E-03
       5.6642186E-03
       5.5147901E-03
       7.9061934E-08
       5.6666008E-03
       4.8900359E-03
       5.6673528E-03
       5.6670491E-03
       5.6673942E-03
       5.8306594E-08
       5.6523399E-03
       5.6673272E-03
       5.6666792E-03
       5.6673942E-03
       5.6673941E-03
       2.8546226E-08
       5.6673942E-03
       4.7583638E-03
       5.6673924E-03
       5.6673942E-03
       4.1481629E-03
       9.4910728E-04
       5.6673942E-03
       5.6673941E-03
       5.6673942E-03
       5.6673942E-03
       5.6630659E-03
       5.6673940E-03
       5.6673115E-03
       5.6673942E-03
       5.6673942E-03
       5.6673906E-03
       5.6673505E-03
       5.6673084E-03
       5.6673940E-03
       5.3181587E-04
       5.6509910E-03
       5.6243537E-03
       5.6640544E-03
       4.3642927E-05
       7.2913056E-07
       2.0000721E-07
       1.0599580E-06
       2.7102335E-07
       5.6670986E-03
       5.6672956E-03
       4.4125565E-03
       1.6639563E-03
       4.3130131E-03
       2.4682791E-04
       4.0108629E-08
       5.4699012E-05
       2.7715138E-08
       2.8475719E-07
       9.3086569E-08
       4.1721088E-06
       3.3966249E-05
       5.6673942E-03
       5.6673942E-03
       5.6673942E-03
       5.6673942E-03
       5.6673942E-03
       5.6673942E-03
       5.6673942E-03
       5.6673942E-03
       5.6673942E-03
       5.6673942E-03
       5.6673942E-03
       5.6673942E-03
       5.6673942E-03
       5.6673942E-03
       5.6673942E-03
       5.6673942E-03
       5.6673942E-03
       5.6673939E-03
       5.6673941E-03
       5.6673294E-03
       5.6673762E-03
       5.6673931E-03
       5.6673905E-03
       5.6673930E-03
       5.6665581E-03
       5.6292023E-03
       5.6672858E-03
       5.6664071E-03
       5.6427120E-03
       5.6673942E-03
       5.6673942E-03
       5.6673942E-03
       5.6673942E-03
       5.6673942E-03
       5.6673942E-03
       5.6673942E-03
       5.6673942E-03
       5.6673942E-03
       5.6673942E-03
       5.6673942E-03
       5.6673942E-03
       5.6673942E-03
       5.6673942E-03
       5.6673942E-03
       5.6673942E-03
       5.6673942E-03
       5.6673942E-03
       5.6673942E-03
       5.6673942E-03
       5.6673942E-03
       5.6673942E-03
       5.6673942E-03
       5.6673942E-03
       5.6673942E-03
       5.6673942E-03
       5.6673942E-03
       5.6673942E-03
       5.6673942E-03
       5.6673942E-03
       5.6673942E-03
       5.6673942E-03
       5.6673942E-03
       5.6673942E-03
       5.6673942E-03
       5.6673942E-03
       5.6673942E-03
       5.6673942E-03
       5.6673942E-03
       5.6673942E-03
       5.6673942E-03
       5.6673942E-03
       5.6673942E-03
       5.6673942E-03
       5.6673942E-03
       5.6673942E-03
       5.6673942E-03
       5.6673942E-03
       5.6673942E-03
       5.6673942E-03
       5.6673942E-03
       5.6673942E-03
       5.6673942E-03
       5.6673942E-03
       5.6673942E-03
       5.6673942E-03
       5.6673942E-03
       5.6673942E-03
       5.6673942E-03
       5.6673942E-03
       5.6673942E-03
       5.6673942E-03
       5.6673942E-03
       5.6673942E-03
       5.6673942E-03
       5.6673942E-03
       5.6673942E-03
       5.6673942E-03
       5.6673942E-03
       5.6673942E-03
       5.6673942E-03
       5.6673942E-03
       5.6673942E-03
       5.6673942E-03
       5.6673942E-03
       5.6673942E-03
       5.6673942E-03
       5.6673942E-03
       5.6673942E-03
       5.6673942E-03
       5.6673942E-03
       5.6673942E-03
       5.6673942E-03
       5.6673942E-03
       5.6673942E-03
       5.6673942E-03
       5.6673942E-03
       5.6673942E-03
       5.6673942E-03
       5.6673942E-03
       5.6673942E-03
       5.6673942E-03
       5.6673942E-03
       5.6673942E-03
       5.6673942E-03
       5.6673942E-03
       5.6673942E-03
       5.6673942E-03
       5.6673942E-03
       5.6673942E-03
       5.6673942E-03
       5.6673942E-03
       5.6673942E-03
       5.6673942E-03
       5.6673942E-03
       5.6673942E-03
       5.6673942E-03
       5.6673942E-03
       5.6673942E-03
       5.6673942E-03
       5.6673942E-03
       5.6673942E-03
       5.6673942E-03
       5.6673942E-03
       5.6673942E-03
       5.6673942E-03
       5.6673942E-03
       5.6673942E-03
       5.6673942E-03
       5.6673942E-03
       5.6673942E-03
       5.6673942E-03
       5.6673942E-03
       5.6673942E-03
       5.6673942E-03
       5.6673942E-03
       5.6673942E-03
       5.6585290E-03
       5.5830912E-03
       3.9329855E-03
       5.3687214E-03
       4.7519137E-03
       5.1312646E-03
       5.2141052E-03
       5.5018100E-03
       5.5166865E-03
       5.3554948E-03
       5.5616062E-03
       9.9999999E-09
       1.0321124E-04
       4.7897268E-03
       4.9098676E-03
       3.4968342E-03
       1.0018828E-03
       5.0010160E-03
       3.9345642E-04
       3.5692386E-04
       3.9998533E-03
       1.2532455E-03
       3.0262282E-04
       1.1216529E-03
       1.4695740E-06
       5.6673942E-03
       5.6673942E-03
       5.6673942E-03
       5.6673942E-03
       5.6673942E-03
       5.6673942E-03
       5.6673942E-03
       5.6673942E-03
       5.6673942E-03
       5.6673942E-03
       5.6673942E-03
       5.6673942E-03
       5.6673942E-03
       5.6673942E-03
       5.6673942E-03
       5.6673942E-03
       5.6673942E-03
       5.6673942E-03
       5.6673942E-03
       5.6673942E-03
       5.6673942E-03
       5.6673942E-03
       5.6673942E-03
       5.6673942E-03
       5.6673942E-03
       5.6673942E-03
       5.6673942E-03
       5.6673942E-03
       5.6673942E-03
       5.6673942E-03
       5.6673929E-03
       5.6673942E-03
       5.6673942E-03
       5.6673768E-03
       5.6673942E-03
       5.6673931E-03
       5.6673942E-03
       5.6673942E-03
       5.6669201E-03
       5.6673646E-03
       5.6673673E-03
       5.6673942E-03
       5.6673942E-03
       5.6673942E-03
       5.6673933E-03
       5.6673942E-03
       5.6673942E-03
       5.6673939E-03
       5.6673939E-03
       5.6673871E-03
       5.6673942E-03
       5.6673942E-03
       5.6673942E-03
       5.6673942E-03
       5.6673942E-03
       5.6673942E-03
       5.6673942E-03
       5.6673942E-03
       5.6673575E-03
       5.6673922E-03
       5.6673941E-03
       5.6673942E-03
       5.6673942E-03
       5.6673914E-03
       5.6368538E-03
       3.3641712E-03
       5.6251033E-03
       5.2839923E-03
       5.6673942E-03
       5.6673942E-03
       5.6673763E-03
       5.6671011E-03
       5.6673936E-03
       5.6673828E-03
       5.6673779E-03
       5.6658358E-03
       5.6673342E-03
       5.6666600E-03
       5.6582950E-03
       5.6656771E-03
       5.4928081E-03
       5.6658753E-03
       5.6673704E-03
       5.6667323E-03
       5.5456467E-03
       5.6592969E-03
       5.6489620E-03
       5.6179432E-03
       3.8973075E-03
       5.6451184E-03
       5.6585566E-03
       5.6642148E-03
       5.6666261E-03
       5.6673937E-03
       5.6568642E-03
       5.6665773E-03
       7.8291250E-06
       1.6809762E-06
       1.7097591E-05
       3.0592190E-06
       5.6673866E-03
       5.0582040E-03
       4.1674277E-03
       5.6067564E-07
       7.8077927E-06
       1.0369058E-05
       2.8209336E-07
       1.5084131E-06
       1.4289579E-07
       5.6673357E-03
       5.6647641E-03
       5.6669770E-03
       5.6629435E-03
       5.6671962E-03
       5.5955463E-03
       5.6673790E-03
       5.6030562E-03
       5.6673908E-03
       5.6672768E-03
       5.6604165E-03
       5.6629951E-03
       1.1450507E-03
       5.6673594E-03
       5.1601744E-03
       5.1637756E-03
       7.6585534E-08
       4.5513468E-03
       5.6673941E-03
       1.0701013E-04
       5.9668666E-05
       1.7222169E-04
       2.1675633E-04
       5.6672202E-03
       5.6673892E-03
       5.6374944E-03
       5.5333527E-03
       5.6673942E-03
       5.6673942E-03
       5.6673942E-03
       5.6673942E-03
       5.6673942E-03
       5.6673942E-03
       5.6673942E-03
       5.6673942E-03
       5.6673942E-03
       5.6673942E-03
       5.6673942E-03
       5.6673942E-03
       5.6673942E-03
       5.6673942E-03
       5.6673942E-03
       5.6673942E-03
       5.6673942E-03
       5.6673942E-03
       5.6673942E-03
       5.6673942E-03
       5.6673942E-03
       5.6673942E-03
       5.6673942E-03
       5.6673942E-03
       5.6673942E-03
       5.6673942E-03
       5.6673942E-03
       5.6673942E-03
       5.6673942E-03
       5.4913904E-03
       7.6166526E-05
       3.2564031E-03
       1.5079550E-08
       5.6673942E-03
       5.6673942E-03
       5.6673942E-03
       5.6673942E-03
       5.6673942E-03
       5.6673942E-03
       5.6673942E-03
       5.6673942E-03
       5.6673942E-03
       5.6673942E-03
       5.6673914E-03
       5.6673942E-03
       5.6673942E-03
       5.6636708E-03
       5.6673942E-03
       5.6673942E-03
       4.8123426E-03
       1.3687736E-03
       5.3348432E-03
       3.6040426E-03
       4.6702312E-03
       5.6160936E-03
       1.4017864E-04
       4.2891776E-03
       1.0433873E-05
       2.2426335E-04
       7.3438011E-05
       4.2357129E-04
       1.2147081E-04
       1.3089794E-03
       3.5263442E-08
       5.6628956E-03
       5.6668643E-03
       5.2840703E-03
       5.5980901E-03
       5.6673942E-03
       5.6673942E-03
       5.6673942E-03
       5.6673941E-03
       5.6673942E-03
       5.6673942E-03
       5.6673942E-03
       5.6665256E-03
       5.6671056E-03
       5.6673924E-03
       5.6577707E-03
       5.6243528E-03
       5.6465515E-03
       5.6649144E-03
       5.4067621E-03
       5.6672378E-03
       5.6650297E-03
       5.6667588E-03
       5.6538775E-03
       5.6673561E-03
       5.6590035E-03
       3.9701417E-08
       5.6664820E-03
       5.5969969E-03
       5.6669194E-03
       5.5560024E-03
       5.3907414E-03
       5.6094428E-03
       3.8840083E-03
       5.4308220E-03
       5.4403449E-03
       4.5227371E-03
       5.1928349E-03
       1.4645051E-03
       1.4767286E-08
       5.6034866E-03
       5.6164367E-03
       5.6637093E-03
       5.6671811E-03
       5.6673460E-03
       5.6671145E-03
       5.6673920E-03
       5.6673789E-03
       5.6672234E-03
       5.6673940E-03
       5.6295053E-03
       6.8677893E-07
       2.3289954E-06
       5.3822450E-03
       1.9776763E-03
       8.5373583E-05
       3.8466889E-04
       4.1865850E-05
       1.4530977E-03
       4.1398817E-03
       1.5640028E-03
       5.6673942E-03
       5.6673942E-03
       5.6673942E-03
       5.6673942E-03
       5.6673942E-03
       5.6673942E-03
       5.6673942E-03
       5.6673942E-03
       5.6673942E-03
       5.6673942E-03
       5.6673942E-03
       5.6673942E-03
       5.6673942E-03
       5.6673829E-03
       5.6673942E-03
       5.6673942E-03
       5.6673942E-03
       5.6673942E-03
       5.6673942E-03
       5.6673942E-03
       5.6673942E-03
       5.6672596E-03
       5.6673942E-03
       5.6673942E-03
       5.6673941E-03
       5.6673937E-03
       5.6673942E-03
       5.6673942E-03
       5.6673942E-03
       5.6673942E-03
       5.6673942E-03
       5.6663714E-03
       5.6673942E-03
       5.6673942E-03
       5.6673942E-03
       5.6673941E-03
       5.6673942E-03
       5.6673942E-03
       5.6673942E-03
       5.6673942E-03
       5.6673942E-03
       5.6673942E-03
       5.6673942E-03
       5.6673942E-03
       5.6673942E-03
       5.6673942E-03
       5.6673942E-03
       5.6673942E-03
       5.6673942E-03
       5.6673942E-03
       5.6673941E-03
       1.4365901E-07
       5.6673942E-03
       2.3645140E-07
       5.6673942E-03
       5.6673942E-03
       5.6673942E-03
       5.6673928E-03
       5.6673879E-03
       5.6673942E-03
       5.6673942E-03
       5.6673942E-03
       5.6673942E-03
       5.6673942E-03
       5.6673942E-03
       5.6673942E-03
       5.6673942E-03
       5.6673942E-03
       5.6673941E-03
       5.6673888E-03
       5.6673942E-03
       5.6673916E-03
       5.6673942E-03
       5.6673924E-03
       5.6673942E-03
       5.6673937E-03
       5.6673942E-03
       5.6673942E-03
       5.6673942E-03
       5.6673942E-03
       5.6673942E-03
       5.6673942E-03
       5.6673942E-03
       5.6673941E-03
       5.6673913E-03
       5.6673942E-03
       5.6673942E-03
       5.6673942E-03
       5.6673942E-03
       5.6673942E-03
       5.6673942E-03
       5.6673942E-03
       5.6673942E-03
       5.6673941E-03
       5.6673942E-03
       5.6673942E-03
       5.6673942E-03
       5.6673942E-03
       5.6673942E-03
       5.6673942E-03
       5.6673942E-03
       5.6673941E-03
       5.6673940E-03
       5.6673942E-03
       5.6673911E-03
       5.6673942E-03
       5.6673942E-03
       5.6673942E-03
       5.6673942E-03
       5.6673942E-03
       5.6673942E-03
       5.6673942E-03
       5.6673942E-03
       5.6673942E-03
       5.6673942E-03
       5.6673942E-03
       5.6673942E-03
       5.6673942E-03
       5.6673942E-03
       5.6673942E-03
       5.6673942E-03
       5.6673942E-03
       5.6673942E-03
       5.6673942E-03
       5.6673942E-03
       5.6673942E-03
       5.6673942E-03
       5.6673942E-03
       5.6673942E-03
       5.6673942E-03
       5.6673942E-03
       5.6673942E-03
       5.6673942E-03