# vtk DataFile Version 3.0
# Solution du M1 TR
ASCII
DATASET UNSTRUCTURED_GRID
POINTS   3280  float
0.0000000E+00  0.0000000E+00  0.2399411E-01
0.2000000E+01  0.0000000E+00  0.1960319E+01
0.2000000E+01  0.1000000E+01  0.1960453E+01
0.0000000E+00  0.1000000E+01  0.2389846E-01
0.1000000E+01  0.0000000E+00  0.9927831E+00
0.1000000E+01  0.1000000E+01  0.9917750E+00
0.1500000E+01  0.5000000E+00  0.1493089E+01
0.1500000E+01  0.0000000E+00  0.1472325E+01
0.1723284E+01  0.3570951E+00  0.1698270E+01
0.1500000E+01  0.2500000E+00  0.1493426E+01
0.1515103E+01  0.2763186E+00  0.1507641E+01
0.1594866E+01  0.2826386E+00  0.1581321E+01
0.1562500E+01  0.1875000E+00  0.1550462E+01
0.1534357E+01  0.1819434E+00  0.1523663E+01
0.1561083E+01  0.3343258E+00  0.1550435E+01
0.1750000E+01  0.0000000E+00  0.1715432E+01
0.1503267E+01  0.1622339E+00  0.1493499E+01
0.1514910E+01  0.2261192E+00  0.1506982E+01
0.1610795E+01  0.1290247E+00  0.1589413E+01
0.1539062E+01  0.1536458E+00  0.1525743E+01
0.1510772E+01  0.1982718E+00  0.1502230E+01
0.1541862E+01  0.2179813E+00  0.1531962E+01
0.1475030E+01  0.2178147E+00  0.1469619E+01
0.1539206E+01  0.2578835E+00  0.1529761E+01
0.1521085E+01  0.2465697E+00  0.1512821E+01
0.1496499E+01  0.2146241E+00  0.1489534E+01
0.1481433E+01  0.1870688E+00  0.1474176E+01
0.1586261E+01  0.1960616E+00  0.1571952E+01
0.1460896E+01  0.2899333E+00  0.1457003E+01
0.1542195E+01  0.2867649E+00  0.1532685E+01
0.1486080E+01  0.2754813E+00  0.1480491E+01
0.1536278E+01  0.3247610E+00  0.1527521E+01
0.1510131E+01  0.3295675E+00  0.1503187E+01
0.1455545E+01  0.2514402E+00  0.1451799E+01
0.1610995E+01  0.1909452E+00  0.1594665E+01
0.1564462E+01  0.2395252E+00  0.1553182E+01
0.1571524E+01  0.3026484E+00  0.1559805E+01
0.1613657E+01  0.2555806E+00  0.1598492E+01
0.1633998E+01  0.2714643E+00  0.1616910E+01
0.1534973E+01  0.3650914E+00  0.1525490E+01
0.1583157E+01  0.2286349E+00  0.1569964E+01
0.1586501E+01  0.1581416E+00  0.1570483E+01
0.1651985E+01  0.2274641E+00  0.1633173E+01
0.1619170E+01  0.2936434E+00  0.1603393E+01
0.1678889E+01  0.2641389E+00  0.1657628E+01
0.1642286E+01  0.2930521E+00  0.1624256E+01
0.1526415E+01  0.3446283E+00  0.1517991E+01
0.1662420E+01  0.3044259E+00  0.1642586E+01
0.1636786E+01  0.2469276E+00  0.1619619E+01
0.1588953E+01  0.3366240E+00  0.1576011E+01
0.1616427E+01  0.3314099E+00  0.1601098E+01
0.1598305E+01  0.3102698E+00  0.1584404E+01
0.1655410E+01  0.2614708E+00  0.1636209E+01
0.1487553E+01  0.3072167E+00  0.1481922E+01
0.1520126E+01  0.3036443E+00  0.1512350E+01
0.1477894E+01  0.2544664E+00  0.1472924E+01
0.1567847E+01  0.2133479E+00  0.1555667E+01
0.1663947E+01  0.3299725E+00  0.1644586E+01
0.1567022E+01  0.2696000E+00  0.1555691E+01
0.1678598E+01  0.3509559E+00  0.1657579E+01
0.1611933E+01  0.3827205E+00  0.1595926E+01
0.1640491E+01  0.3197373E+00  0.1623002E+01
0.1588015E+01  0.2526666E+00  0.1574876E+01
0.1708471E+01  0.3144917E+00  0.1684794E+01
0.1606944E+01  0.3564315E+00  0.1592014E+01
0.1604614E+01  0.2314093E+00  0.1589652E+01
0.1643491E+01  0.3631133E+00  0.1625444E+01
0.2000000E+01  0.5000000E+00  0.1960546E+01
0.1494727E+01  0.3621796E+00  0.1488356E+01
0.1701807E+01  0.3477237E+00  0.1678559E+01
0.1572156E+01  0.3701847E+00  0.1560045E+01
0.1688392E+01  0.3285111E+00  0.1666707E+01
0.1695932E+01  0.3904821E+00  0.1672997E+01
0.1636337E+01  0.3418163E+00  0.1619324E+01
0.1505941E+01  0.9448485E-01  0.1483434E+01
0.1423727E+01  0.1910920E+00  0.1419795E+01
0.1481447E+01  0.3359634E+00  0.1476315E+01
0.1441613E+01  0.3726133E+00  0.1438788E+01
0.1466699E+01  0.3599060E+00  0.1462319E+01
0.1476682E+01  0.4107296E+00  0.1471570E+01
0.1434448E+01  0.3273535E+00  0.1432270E+01
0.1464523E+01  0.3867258E+00  0.1460393E+01
0.1456903E+01  0.3373583E+00  0.1453390E+01
0.1454188E+01  0.3132491E+00  0.1450633E+01
0.1424069E+01  0.2919612E+00  0.1422062E+01
0.1490969E+01  0.3884111E+00  0.1484976E+01
0.1428051E+01  0.4202828E+00  0.1426234E+01
0.1513790E+01  0.3782958E+00  0.1505985E+01
0.1547789E+01  0.4092466E+00  0.1537294E+01
0.1535154E+01  0.3889763E+00  0.1525628E+01
0.1512699E+01  0.4170463E+00  0.1505185E+01
0.1441554E+01  0.3983607E+00  0.1438918E+01
0.1395941E+01  0.3853832E+00  0.1396187E+01
0.1420578E+01  0.3854393E+00  0.1419213E+01
0.1408336E+01  0.3518173E+00  0.1407658E+01
0.1549967E+01  0.3074339E+00  0.1540153E+01
0.1651639E+01  0.4114272E+00  0.1632310E+01
0.1668616E+01  0.3788978E+00  0.1648291E+01
0.1674624E+01  0.4027285E+00  0.1653679E+01
0.1706988E+01  0.4343785E+00  0.1682782E+01
0.1673984E+01  0.4357547E+00  0.1652456E+01
0.1695270E+01  0.4139894E+00  0.1672408E+01
0.1737273E+01  0.4034108E+00  0.1710544E+01
0.1645630E+01  0.3875965E+00  0.1627211E+01
0.1625874E+01  0.4052508E+00  0.1608785E+01
0.1627808E+01  0.4540126E+00  0.1610802E+01
0.1587158E+01  0.4136289E+00  0.1573483E+01
0.1633718E+01  0.4293591E+00  0.1616229E+01
0.1651607E+01  0.4466828E+00  0.1632223E+01
0.1605650E+01  0.4356658E+00  0.1590370E+01
0.1682168E+01  0.4808869E+00  0.1659119E+01
0.1671711E+01  0.4594749E+00  0.1650316E+01
0.1698428E+01  0.4596870E+00  0.1674853E+01
0.1646221E+01  0.4851828E+00  0.1626629E+01
0.1607747E+01  0.4151289E+00  0.1592282E+01
0.1584205E+01  0.4841185E+00  0.1569840E+01
0.1747573E+01  0.4622079E+00  0.1719837E+01
0.1568396E+01  0.4481495E+00  0.1555820E+01
0.1601760E+01  0.4629165E+00  0.1586771E+01
0.1723356E+01  0.4540167E+00  0.1697660E+01
0.1732897E+01  0.4294241E+00  0.1706242E+01
0.1722218E+01  0.4972746E+00  0.1695964E+01
0.1715121E+01  0.4754441E+00  0.1689675E+01
0.1584567E+01  0.4345797E+00  0.1571050E+01
0.1563465E+01  0.4258523E+00  0.1551875E+01
0.1534166E+01  0.4440258E+00  0.1524481E+01
0.1615090E+01  0.4918227E+00  0.1598230E+01
0.1717469E+01  0.4134541E+00  0.1692538E+01
0.1718488E+01  0.3909170E+00  0.1693338E+01
0.1741353E+01  0.3769080E+00  0.1714472E+01
0.1781199E+01  0.4241746E+00  0.1751048E+01
0.2000000E+01  0.2500000E+00  0.1960359E+01
0.1756308E+01  0.4199875E+00  0.1728088E+01
0.1762447E+01  0.3937207E+00  0.1733859E+01
0.1765097E+01  0.4438197E+00  0.1736002E+01
0.1807974E+01  0.4625425E+00  0.1775310E+01
0.1789176E+01  0.4471344E+00  0.1758075E+01
0.1514158E+01  0.1287364E+00  0.1499138E+01
0.1777674E+01  0.4803377E+00  0.1747642E+01
0.1811145E+01  0.4395021E+00  0.1778804E+01
0.1850404E+01  0.4566449E+00  0.1815532E+01
0.1748483E+01  0.3522599E+00  0.1721231E+01
0.1731235E+01  0.3304535E+00  0.1705601E+01
0.1777870E+01  0.3654441E+00  0.1748484E+01
0.1748149E+01  0.2821176E+00  0.1720941E+01
0.1732875E+01  0.3039003E+00  0.1707063E+01
0.1708314E+01  0.2807181E+00  0.1684806E+01
0.1767650E+01  0.3193756E+00  0.1739161E+01
0.1372661E+01  0.1704076E+00  0.1369672E+01
0.1411157E+01  0.2494459E+00  0.1409944E+01
0.1448000E+01  0.2246098E+00  0.1444296E+01
0.1360382E+01  0.2278583E+00  0.1361173E+01
0.1433680E+01  0.2431125E+00  0.1431200E+01
0.1388814E+01  0.2314916E+00  0.1388315E+01
0.1314549E+01  0.2124991E+00  0.1317143E+01
0.1404157E+01  0.2007613E+00  0.1402125E+01
0.1415035E+01  0.1072182E+00  0.1402464E+01
0.1520299E+01  0.1091515E+00  0.1501127E+01
0.1459010E+01  0.1690672E+00  0.1452024E+01
0.1436337E+01  0.2690050E+00  0.1433736E+01
0.1443480E+01  0.1263360E+00  0.1433036E+01
0.1625000E+01  0.0000000E+00  0.1593418E+01
0.1414954E+01  0.2197329E+00  0.1412780E+01
0.1335299E+01  0.2266424E+00  0.1337195E+01
0.1396801E+01  0.1612344E+00  0.1391729E+01
0.1792033E+01  0.3934232E+00  0.1761430E+01
0.1541310E+01  0.1264947E+00  0.1524629E+01
0.1483859E+01  0.1256971E+00  0.1469728E+01
0.1500341E+01  0.1139400E+00  0.1483340E+01
0.1498380E+01  0.1421255E+00  0.1485695E+01
0.1478242E+01  0.1468909E+00  0.1468003E+01
0.1453147E+01  0.1972183E+00  0.1448143E+01
0.1348833E+01  0.2067866E+00  0.1349606E+01
0.1368157E+01  0.2800764E+00  0.1369343E+01
0.1250000E+01  0.0000000E+00  0.1232238E+01
0.1496272E+01  0.2780308E-01  0.1469306E+01
0.1430228E+01  0.1622338E+00  0.1423511E+01
0.1544491E+01  0.1012427E+00  0.1522416E+01
0.1505524E+01  0.5428530E-01  0.1479822E+01
0.1576405E+01  0.1180891E+00  0.1556001E+01
0.1526885E+01  0.8834234E-01  0.1502474E+01
0.1558557E+01  0.6358195E-01  0.1531502E+01
0.1372206E+01  0.9428859E-01  0.1358026E+01
0.1414069E+01  0.8636887E-01  0.1397194E+01
0.1351230E+01  0.1581055E+00  0.1348333E+01
0.1371634E+01  0.2528708E+00  0.1372479E+01
0.1392978E+01  0.2694234E+00  0.1392831E+01
0.1321668E+01  0.2603105E+00  0.1325032E+01
0.1392566E+01  0.3027057E+00  0.1392637E+01
0.1345601E+01  0.2495441E+00  0.1347623E+01
0.1349996E+01  0.1827855E+00  0.1349292E+01
0.1475238E+01  0.9618066E-01  0.1455578E+01
0.1487372E+01  0.4556180E+00  0.1481529E+01
0.1432024E+01  0.3509343E+00  0.1429759E+01
0.1619231E+01  0.5383449E+00  0.1600971E+01
0.1532505E+01  0.4233173E+00  0.1523274E+01
0.1547332E+01  0.4788657E+00  0.1536300E+01
0.1627786E+01  0.4750493E+00  0.1610056E+01
0.1750658E+01  0.4911384E+00  0.1722545E+01
0.1783313E+01  0.5336292E+00  0.1752268E+01
0.1744147E+01  0.5299352E+00  0.1715802E+01
0.1772978E+01  0.5077787E+00  0.1742813E+01
0.1739682E+01  0.5092411E+00  0.1711858E+01
0.1715917E+01  0.5251974E+00  0.1689779E+01
0.1809547E+01  0.4999146E+00  0.1776649E+01
0.1486188E+01  0.5335558E+00  0.1479572E+01
0.1695320E+01  0.5058771E+00  0.1671181E+01
0.1793562E+01  0.5145404E+00  0.1761725E+01
0.1827482E+01  0.5355643E+00  0.1793626E+01
0.1805457E+01  0.5332234E+00  0.1772895E+01
0.1812320E+01  0.5734372E+00  0.1779555E+01
0.1794794E+01  0.5557356E+00  0.1763108E+01
0.1637325E+01  0.5533192E+00  0.1617472E+01
0.1761146E+01  0.5591762E+00  0.1731669E+01
0.1789115E+01  0.5788851E+00  0.1757679E+01
0.1693317E+01  0.6123782E+00  0.1669918E+01
0.1522396E+01  0.5359490E+00  0.1512806E+01
0.1814654E+01  0.6254783E+00  0.1781783E+01
0.1726166E+01  0.5505978E+00  0.1698985E+01
0.1691322E+01  0.5307786E+00  0.1667387E+01
0.1516987E+01  0.5143680E+00  0.1508255E+01
0.1661909E+01  0.5147686E+00  0.1640088E+01
0.1761865E+01  0.6508066E+00  0.1732821E+01
0.1692174E+01  0.5698207E+00  0.1668240E+01
0.1780214E+01  0.6037461E+00  0.1749628E+01
[...]
POINT_DATA    3280
SCALARS hauteur float
LOOKUP_TABLE DEFAULT
       2.3994111E-02
       1.8550048E-04
       3.1934946E-04
       2.3898461E-02
       1.2716475E-02
       1.1708420E-02
       2.2988876E-02
       2.2254189E-03
       9.3369220E-03
       2.3326120E-02
       2.2738898E-02
       1.8246782E-02
       1.9107986E-02
       1.9890337E-02
       2.0469609E-02
       3.1560784E-04
       2.0197445E-02
       2.2269011E-02
       1.0726026E-02
       1.7358896E-02
       2.1573158E-02
       2.0834871E-02
       2.3991246E-02
       2.1237429E-02
       2.2056207E-02
       2.2865374E-02
       2.2273935E-02
       1.7309632E-02
       2.5227945E-02
       2.1231202E-02
       2.4033877E-02
       2.1866190E-02
       2.3158891E-02
       2.5268348E-02
       1.5782560E-02
       1.9904805E-02
       1.9607737E-02
       1.7000119E-02
       1.5482997E-02
       2.1113516E-02
       1.8364552E-02
       1.5605542E-02
       1.4117537E-02
       1.6499128E-02
       1.2204656E-02
       1.4705618E-02
       2.2003094E-02
       1.3303572E-02
       1.5459829E-02
       1.8731168E-02
       1.6892114E-02
       1.7958902E-02
       1.3796701E-02
       2.4021288E-02
       2.2524522E-02
       2.4490189E-02
       1.9072447E-02
       1.3806506E-02
       1.9904545E-02
       1.2440700E-02
       1.6124462E-02
       1.5211381E-02
       1.8515888E-02
       1.0379064E-02
       1.7101919E-02
       1.7022857E-02
       1.4713917E-02
       4.1257901E-04
       2.3424133E-02
       1.0675238E-02
       1.9227635E-02
       1.1970193E-02
       1.0870208E-02
       1.5603901E-02
       7.5120065E-03
       2.4447013E-02
       2.4398278E-02
       2.5910933E-02
       2.4856636E-02
       2.4323238E-02
       2.6415584E-02
       2.5062503E-02
       2.5527794E-02
       2.5432199E-02
       2.6379733E-02
       2.3727307E-02
       2.6649201E-02
       2.2369976E-02
       2.0357867E-02
       2.1074931E-02
       2.2638984E-02
       2.6098707E-02
       2.8072458E-02
       2.6952352E-02
       2.7395355E-02
       2.1082308E-02
       1.3593906E-02
       1.2936301E-02
       1.2435695E-02
       9.8197955E-03
       1.1840530E-02
       1.0930829E-02
       7.9003156E-03
       1.4384057E-02
       1.5319588E-02
       1.5442323E-02
       1.7962626E-02
       1.5077291E-02
       1.3538165E-02
       1.6725714E-02
       1.0481974E-02
       1.1927594E-02
       1.0281233E-02
       1.3222725E-02
       1.6582237E-02
       1.7214011E-02
       7.0990557E-03
       1.8687771E-02
       1.6938800E-02
       8.6566969E-03
       7.8869684E-03
       8.0759043E-03
       8.7423941E-03
       1.8068676E-02
       1.9574915E-02
       2.0896789E-02
       1.5334832E-02
       9.3039128E-03
       9.1053297E-03
       7.8306166E-03
       5.3536912E-03
       2.2599415E-04
       6.7895548E-03
       6.5433778E-03
       6.0894456E-03
       3.3752118E-03
       4.5640498E-03
       1.5161820E-02
       5.4032337E-03
       3.7612326E-03
       2.0133355E-03
       7.6019445E-03
       8.8748766E-03
       6.0530787E-03
       7.6393069E-03
       8.7295596E-03
       1.0544323E-02
       6.7469755E-03
       2.4373040E-02
       2.6916301E-02
       2.5159806E-02
       2.7908063E-02
       2.6098450E-02
       2.7185301E-02
       2.8797982E-02
       2.5957521E-02
       1.5635375E-02
       1.1132708E-02
       2.2097476E-02
       2.6030787E-02
       1.8329362E-02
       8.0945743E-04
       2.6031330E-02
       2.8512245E-02
       2.2770123E-02
       5.1187970E-03
       1.4042474E-02
       1.5447396E-02
       1.2906048E-02
       1.7183007E-02
       1.9227203E-02
       2.3961617E-02
       2.7659809E-02
       2.8458142E-02
       7.1552772E-03
       2.8604123E-03
       2.1792489E-02
       8.7119088E-03
       4.3082854E-03
       1.1019353E-02
       6.0254385E-03
       4.0131029E-03
       1.3173144E-02
       1.1313107E-02
       2.4037043E-02
       2.8186599E-02
       2.7620017E-02
       2.9709845E-02
       2.7829124E-02
       2.8843716E-02
       2.6206188E-02
       9.7465208E-03
       2.3805637E-02
       2.6279764E-02
       1.4016836E-02
       2.1316843E-02
       1.9811637E-02
       1.4717601E-02
       6.7835910E-03
       4.5028796E-03
       6.4220063E-03
       5.1767344E-03
       6.8534164E-03
       8.0667214E-03
       3.1730774E-03
       2.3008835E-02
       9.6546440E-03
       3.9153202E-03
       2.5717379E-03
       3.4267629E-03
       3.3608359E-03
       4.0906026E-03
       1.2784486E-02
       5.6290284E-03
       4.2269548E-03
       1.0354860E-02
       2.0756153E-02
       3.3020870E-03
       7.2267772E-03
       9.7794187E-03
       2.1507151E-02
       1.1306082E-02
       6.0757282E-03
       9.7965966E-03
       4.8996436E-03
       1.8281290E-02
       1.0929583E-02
       6.3354030E-03
       1.6805225E-02
       1.3046384E-02
       7.2870820E-03
       6.9435885E-03
       9.8322711E-03
       1.0387371E-02
       3.0204029E-03
       4.8137807E-03
       4.8158066E-04
       8.2375716E-03
       1.9589599E-03
       5.1502898E-03
       5.8302363E-03
       1.1779485E-02
       8.9671675E-03
       4.2015310E-03
       2.7671099E-03
       2.8372065E-03
       3.7424157E-03
       4.5297396E-03
       4.6633595E-03
       6.1683536E-03
       1.7687579E-02
       2.6634042E-02
       1.2579805E-02
       1.4950695E-02
       1.7533499E-02
       2.1105168E-02
       3.8304150E-03
       6.1053536E-03
       3.6403287E-03
       1.5440068E-03
       1.3541592E-03
       2.1129221E-03
       7.2782984E-03
       6.8179576E-03
       1.5579567E-03
       1.0490669E-02
       2.9762140E-03
       9.4503224E-03
       2.1693987E-03
       5.6238095E-04
       6.0534156E-03
       1.3639233E-02
       1.2467225E-02
       1.4803403E-02
       6.1085776E-03
       1.5350563E-02
       2.1541795E-02
       1.9685041E-02
       2.5944883E-02
       2.4226083E-02
       2.1140366E-02
       2.4803005E-02
       1.0196051E-02
       4.3669566E-03
       2.0389933E-02
       6.7964915E-03
       1.9384887E-02
       4.4013779E-03
       2.7136131E-02
       2.7158016E-02
       2.8135983E-02
       2.8531620E-02
       2.9287079E-02
       2.3638292E-02
       2.2290318E-02
       2.5146488E-02
       2.1264534E-02
       2.1284005E-02
       1.6034653E-02
       1.9660181E-02
       1.2404962E-02
       1.9878048E-02
       1.8501914E-02
       3.9627713E-03
       2.7323889E-03
       2.2759843E-03
       5.4247369E-03
       1.1614212E-02
       2.5649259E-03
       3.6617220E-03
       1.3239684E-02
       1.6147962E-02
       3.9208948E-03
       1.0017736E-02
       4.0535330E-03
       8.4264615E-03
       6.6841687E-03
       8.4176876E-03
       7.9775588E-03
       3.8599444E-03
       2.1805078E-03
       9.7880789E-05
       5.2816850E-03
       1.2765697E-03
       7.8508760E-03
       4.6006528E-03
       1.3176249E-02
       4.1237628E-04
       2.6646978E-03
       6.7984141E-03
       6.2041489E-03
       1.1627953E-02
       8.3797168E-03
       2.5220427E-03
       1.4922416E-02
       1.1881014E-03
       1.0366832E-02
       1.8319014E-02
       1.0798744E-03
       6.0528730E-04
       1.1781783E-02
       1.2315201E-02
       1.1944115E-02
       1.1569655E-02
       6.4378983E-03
       1.4877188E-02
       1.4184478E-02
       1.3872896E-02
       1.6067692E-02
       1.3457955E-02
       8.4488435E-03
       1.2112829E-02
       1.0379017E-02
       4.0396828E-04
       2.6434870E-03
       2.7182612E-03
       3.9191238E-03
       2.1347122E-03
       2.1663246E-03
       9.8893785E-04
       9.7983229E-04
       6.8470176E-04
       1.1848069E-02
       1.4123158E-02
       1.4027033E-02
       1.0751064E-02
       1.5665310E-02
       9.0266953E-03
       3.2425395E-03
       7.1285859E-03
       3.7766411E-03
       2.7229693E-03
       1.8260008E-03
       2.8065621E-03
       3.4760049E-03
       2.6738679E-02
       2.9992843E-02
       2.8570196E-02
       2.9406526E-02
       3.0361538E-02
       2.9166681E-02
       3.0104028E-02
       3.1325416E-02
       3.0837242E-02
       3.1905068E-02
       3.0557600E-02
       3.1479102E-02
       3.2741630E-02
       3.2040171E-02
       3.1991256E-02
       3.1977310E-02
       3.1138854E-02
       2.9780117E-02
       2.9202227E-02
       2.9381971E-02
       2.9215984E-02
       3.0199000E-02
       3.0935783E-02
       3.0979959E-02
       2.7600697E-02
       2.4602944E-02
       2.7738325E-02
       2.6167506E-02
       2.4774855E-02
       2.8964988E-02
       3.0313755E-02
       3.0001901E-02
       2.9413033E-02
       2.9196315E-02
       3.0009365E-02
       3.1656261E-02
       3.0978447E-02
       2.8712084E-02
       3.0739368E-02
       3.1461411E-02
       3.1815846E-02
       3.1067394E-02
       2.9364830E-02
       2.9769178E-02
       3.3340590E-02
       3.1110315E-02
       3.3166527E-02
       3.2502007E-02
       3.2512526E-02
       3.2691764E-02
       3.3911783E-02
       3.3295179E-02
       3.3246477E-02
       3.2364806E-02
       3.3042122E-02
       3.4364740E-02
       3.3654549E-02
       3.4113983E-02
       3.2973148E-02
       3.5354259E-02
       3.2398930E-02
       3.4575163E-02
       3.1028171E-02
       3.3712098E-02
       3.4810748E-02
       3.5685998E-02
       3.5471634E-02
       3.6657297E-02
       3.6053208E-02
       3.5434152E-02
       3.4362829E-02
       3.2011389E-02
       3.3022343E-02
       3.6102804E-02
       3.6369471E-02
       3.6470298E-02
       3.7562394E-02
       3.7086005E-02
       3.5151558E-02
       3.6908798E-02
       3.1282245E-02
       3.2783916E-02
       3.6939221E-02
       3.6970144E-02
       3.6077449E-02
       3.6759392E-02
       3.7252044E-02
       2.9980201E-02
       3.2707925E-02
       3.8061506E-02
       3.1838114E-02
       3.4255080E-02
       3.7570622E-02
       3.7849063E-02
       2.9962695E-02
       3.3635356E-02
       3.4398595E-02
       3.7365074E-02
       3.7839614E-02
       3.7776016E-02
       3.8834553E-02
       3.8411988E-02
       3.0854183E-02
       2.9897943E-02
       3.1340666E-02
       2.7673485E-02
       3.1447931E-02
       2.8894480E-02
       2.9119058E-02
       2.8583463E-02
       3.8579281E-02
       3.9592829E-02
       2.7656753E-02
       3.8260211E-02
       3.9010979E-02
       3.8161405E-02
       3.9125294E-02
       2.6384429E-02
       2.8117504E-02
       2.7106552E-02
       2.5248699E-02
       2.6405539E-02
       2.6470290E-02
       3.8727448E-02
       3.8193630E-02
       3.9213672E-02
       3.8164489E-02
       2.5352547E-02
       2.4162573E-02
       3.7887828E-02
       3.9697233E-02
       3.8813121E-02
       3.6910433E-02
       2.4323556E-02
       3.9357577E-02
       3.7492924E-02
       3.6771705E-02
       2.5703809E-02
       3.8753428E-02
       3.9469066E-02
       3.7933351E-02
       4.0530720E-02
       3.8032774E-02
       4.0108232E-02
       4.0050131E-02
       4.0105046E-02
       4.0514113E-02
       4.0142804E-02
       3.9675291E-02
       3.9641527E-02
       4.1027489E-02
       4.0565803E-02
       4.1148461E-02
       4.0684874E-02
       4.0970736E-02
       2.5501175E-02
       3.0115909E-03
       2.0009865E-03
       9.5133366E-04
       1.5023712E-03
       9.7884410E-04
       1.3863709E-03
       1.2591971E-03
       1.7002558E-03
       1.8776403E-03
       1.6285892E-03
       2.1493259E-03
       2.3984496E-04
       3.6033533E-04
       1.0790778E-03
       1.1846576E-03
       7.8745515E-04
       5.3471949E-04
       1.2329128E-03
       3.7157983E-04
       4.3315456E-04
       8.3073735E-04
       5.8300673E-04
       3.4652307E-04
       5.1389666E-04
       2.3730199E-04
       2.2994811E-02
       1.1723593E-02
       1.0793700E-02
       1.3509243E-02
       1.2300328E-02
       1.2657013E-02
       1.4536303E-02
       2.0010560E-02
       1.7147452E-02
       1.9583028E-02
       2.0738514E-02
       1.7864322E-02
       1.8931014E-02
       1.6445397E-02
       1.9592253E-02
       2.1380303E-02
       2.1231650E-02
       2.2417066E-02
       2.3559056E-02
       2.2956976E-02
       2.1104693E-02
       1.8680118E-02
       1.9881059E-02
       1.9969939E-02
       2.0333343E-02
       2.2356228E-02
       2.1179989E-02
       2.0472243E-02
       2.1431846E-02
       2.0564226E-02
       2.1905540E-02
       1.8335187E-02
       2.1618644E-02
       1.9628965E-02
       2.3155434E-02
       2.0657570E-02
       2.2512844E-02
       2.3631695E-02
       2.0532883E-02
       2.0754046E-02
       2.2093821E-02
       2.3320411E-02
       2.5133382E-02
       2.4191553E-02
       2.3404356E-02
       2.5648027E-02
       2.3969510E-02
       2.4855387E-02
       2.4159065E-02
       2.3139671E-02
       2.4825544E-02
       2.4439627E-02
       2.5895116E-02
       2.4105628E-02
       2.5244979E-02
       2.7508741E-02
       2.6432712E-02
       2.7697522E-02
       5.2401231E-03
       6.7422380E-03
       8.0998176E-03
       8.8714233E-03
       8.7751859E-03
       9.2936496E-03
       2.8521998E-03
       7.8061802E-04
       3.3038760E-03
       1.4842127E-03
       9.7934899E-03
       1.5750489E-02
       1.0158411E-02
       8.8046289E-03
       1.2276769E-02
       1.2769111E-02
       1.0659622E-02
       8.2120277E-03
       8.6772166E-03
       9.8986150E-03
       1.0364669E-02
       1.2429045E-02
       6.8286050E-03
       5.4176769E-03
       7.1470908E-03
       6.8953590E-03
       5.1766518E-03
       5.9003454E-03
       6.9538377E-03
       3.2819157E-03
       3.0711039E-03
       4.5641306E-03
       3.2890175E-03
       4.1231172E-03
       4.2479224E-03
       8.1872206E-03
       3.3759653E-03
       4.7783396E-03
       2.5559152E-03
       1.2429826E-03
       1.2722235E-03
       8.0764868E-04
       1.5549400E-02
       1.7991481E-02
       1.7882453E-02
       3.9019513E-03
       4.6754856E-03
       5.4735708E-03
       3.2273594E-03
       3.3464850E-03
       2.1395129E-03
       2.7683970E-02
       2.7068695E-02
       2.9014669E-02
       2.7092513E-02
       2.9176342E-02
       2.5281617E-02
       3.0426789E-02
       2.4753439E-02
       3.1561288E-02
       3.0224661E-02
       2.7057119E-02
       2.8453212E-02
       1.6597150E-02
       3.1165724E-02
       2.1554140E-02
       2.1952696E-02
       1.0371529E-02
       2.0563781E-02
       3.2213355E-02
       1.3845954E-02
       9.3688251E-03
       1.3757889E-02
       1.3183351E-02
       3.0760623E-02
       3.2242558E-02
       2.3807426E-02
       2.2178490E-02
       3.0537456E-02
       3.3473723E-02
       3.3838793E-02
       3.0362053E-02
       3.3505410E-02
       3.5870960E-02
       3.5111436E-02
       3.8619225E-02
       3.7261310E-02
       3.9301559E-02
       3.8685867E-02
       3.9280808E-02
       3.8609118E-02
       3.9297836E-02
       4.0423178E-02
       3.9861203E-02
       3.9897717E-02
       3.9967941E-02
       3.7032644E-02
       3.7668546E-02
       3.6073097E-02
       3.7355257E-02
       4.0037469E-02
       4.0250454E-02
       3.9443355E-02
       3.9231732E-02
       3.9616251E-02
       4.0775705E-02
       4.1964202E-02
       1.8058674E-03
       4.4415068E-04
       7.2182745E-04
       3.5466075E-04
       1.4257478E-02
       1.5373548E-02
       1.3874658E-02
       1.5729122E-02
       1.4959996E-02
       2.2313923E-02
       2.5551612E-02
       2.4896457E-02
       1.6855675E-02
       1.5685858E-02
       1.7679497E-02
       2.2554451E-02
       2.1935894E-02
       2.0660907E-02
       2.5383945E-02
       2.8853855E-02
       1.2077692E-03
       6.5664041E-04
       1.8852286E-03
       9.4965757E-04
       1.1928659E-03
       3.2539536E-03
       3.2928205E-04
       1.0826464E-03
       1.3870618E-04
       2.4748456E-04
       3.8660780E-04
       5.6348255E-04
       1.9139744E-04
       5.1073744E-04
       1.4193820E-04
       4.9714589E-03
       6.5242633E-03
       1.5808776E-03
       2.1600910E-03
       1.3551752E-02
       1.4920674E-02
       1.7018403E-02
       1.7604736E-02
       1.7394902E-02
       1.8855088E-02
       1.8873881E-02
       8.5370941E-03
       7.9472331E-03
       1.1722648E-02
       1.2834599E-02
       3.7960940E-03
       9.8324413E-03
       1.1064772E-02
       2.1800290E-03
       1.0194208E-02
       1.2803567E-02
       1.4522311E-02
       1.4452363E-02
       1.5708005E-02
       1.4102956E-02
       6.4007654E-04
       1.6127934E-02
       1.2057474E-02
       1.5728797E-02
       1.0972159E-02
       1.1249499E-02
       1.0613864E-02
       4.4194041E-03
       7.5348961E-03
       5.6295118E-03
       6.7957832E-03
       5.3359318E-03
       2.3434022E-03
       1.0278508E-03
       1.5217108E-02
       1.4262548E-02
       1.6729345E-02
       5.4097165E-03
       5.6337507E-03
       4.7917898E-03
       7.2235596E-03
       6.2418455E-03
       5.5615210E-03
       9.1291820E-03
       2.7106037E-03
       7.9773327E-04
       6.1002109E-04
       2.1837532E-02
       1.6807613E-02
       1.0345058E-02
       1.2783237E-02
       1.0055143E-02
       1.5112543E-02
       1.7900430E-02
       1.7040060E-02
       3.3034744E-02
       3.5003432E-02
       3.5195571E-02
       3.5352564E-02
       3.5409421E-02
       3.6014781E-02
       3.4405923E-02
       3.4160987E-02
       3.4980236E-02
       3.4150858E-02
       3.8605115E-02
       3.8489464E-02
       4.3621578E-02
       3.8420670E-02
       3.6798117E-02
       4.1112142E-02
       4.0342627E-02
       4.1174017E-02
       4.0362756E-02
       3.8986483E-02
       4.2250899E-02
       3.4106288E-02
       4.1864093E-02
       4.2989850E-02
       3.7059206E-02
       3.2990825E-02
       4.3023074E-02
       4.2679933E-02
       4.0766854E-02
       4.1099753E-02
       4.1315263E-02
       3.4427622E-02
       4.2249207E-02
       3.7166045E-02
       4.1772354E-02
       3.5896185E-02
       4.2626751E-02
       4.1600204E-02
       4.2207376E-02
       4.1870042E-02
       4.2396480E-02
       4.0885720E-02
       4.2995321E-02
       3.8927713E-02
       4.2693834E-02
       3.8496121E-02
       3.7657421E-02
       4.2496760E-02
       4.3000426E-02
       3.9112544E-02
       3.7641981E-02
       1.9580921E-02
       4.3418220E-02
       1.7209487E-02
       4.3809445E-02
       3.9409213E-02
       4.3618694E-02
       3.5686550E-02
       3.4586738E-02
       4.3680797E-02
       4.4082561E-02
       4.4061166E-02
       4.4629314E-02
       4.3378559E-02
       4.3283496E-02
       3.8527818E-02
       3.6581371E-02
       3.8120431E-02
       3.6124435E-02
       3.5527905E-02
       4.1600359E-02
       3.7040752E-02
       3.8083244E-02
       3.5108891E-02
       3.5626618E-02
       3.7225483E-02
       4.5228268E-02
       3.9662553E-02
       4.2441036E-02
       3.6607245E-02
       4.2158381E-02
       3.7107529E-02
       3.6493264E-02
       3.5461861E-02
       3.4579469E-02
       3.5936258E-02
       3.6349348E-02
       3.6555303E-02
       3.6146836E-02
       3.5602447E-02
       3.6012750E-02
       3.5141641E-02
       3.5904944E-02
       3.4441693E-02
       3.4058521E-02
       3.4725066E-02
       3.4049396E-02
       3.4684684E-02
       3.5322638E-02
       3.4792287E-02
       3.4024920E-02
       3.3333481E-02
       3.3183625E-02
       3.3082344E-02
       3.2036427E-02
       3.3553658E-02
       3.3995518E-02
       3.7595002E-02
       4.0015194E-02
       3.9049098E-02
       3.9333355E-02
       4.0500749E-02
       4.1593387E-02
       4.1338735E-02
       4.1619386E-02
       4.1377474E-02
       4.0909566E-02
       4.1756270E-02
       4.1242992E-02
       4.2313191E-02
       4.1216869E-02
       4.2212462E-02
       4.1890185E-02
       4.2627716E-02
       4.1582058E-02
       4.1589572E-02
       4.1585827E-02
       4.0587273E-02
       4.2014577E-02
       4.1144074E-02
       4.0778074E-02
       4.1817896E-02
       4.1920109E-02