# vtk DataFile Version 3.0
# Solution du M1 TR
ASCII
DATASET UNSTRUCTURED_GRID
POINTS   3280  float
0.0000000E+00  0.0000000E+00  0.2319126E-01
0.2000000E+01  0.0000000E+00  0.1960206E+01
0.2000000E+01  0.1000000E+01  0.1960348E+01
0.0000000E+00  0.1000000E+01  0.2316606E-01
0.1000000E+01  0.0000000E+00  0.9914419E+00
0.1000000E+01  0.1000000E+01  0.9915336E+00
0.1500000E+01  0.5000000E+00  0.1497283E+01
0.1500000E+01  0.0000000E+00  0.1474344E+01
0.1723284E+01  0.3570951E+00  0.1704715E+01
0.1500000E+01  0.2500000E+00  0.1495454E+01
0.1515103E+01  0.2763186E+00  0.1510292E+01
0.1594866E+01  0.2826386E+00  0.1585880E+01
0.1562500E+01  0.1875000E+00  0.1553733E+01
0.1534357E+01  0.1819434E+00  0.1526361E+01
0.1561083E+01  0.3343258E+00  0.1554261E+01
0.1750000E+01  0.0000000E+00  0.1715515E+01
0.1503267E+01  0.1622339E+00  0.1495732E+01
0.1514910E+01  0.2261192E+00  0.1509272E+01
0.1610795E+01  0.1290247E+00  0.1594663E+01
0.1539062E+01  0.1536458E+00  0.1528990E+01
0.1510772E+01  0.1982718E+00  0.1504420E+01
0.1541862E+01  0.2179813E+00  0.1534811E+01
0.1475030E+01  0.2178147E+00  0.1471053E+01
0.1539206E+01  0.2578835E+00  0.1532900E+01
0.1521085E+01  0.2465697E+00  0.1515433E+01
0.1496499E+01  0.2146241E+00  0.1491360E+01
0.1481433E+01  0.1870688E+00  0.1475818E+01
0.1586261E+01  0.1960616E+00  0.1576152E+01
0.1460896E+01  0.2899333E+00  0.1458753E+01
0.1542195E+01  0.2867649E+00  0.1536039E+01
0.1486080E+01  0.2754813E+00  0.1482586E+01
0.1536278E+01  0.3247610E+00  0.1530813E+01
0.1510131E+01  0.3295675E+00  0.1506061E+01
0.1455545E+01  0.2514402E+00  0.1453142E+01
0.1610995E+01  0.1909452E+00  0.1599675E+01
0.1564462E+01  0.2395252E+00  0.1556718E+01
0.1571524E+01  0.3026484E+00  0.1563880E+01
0.1613657E+01  0.2555806E+00  0.1603484E+01
0.1633998E+01  0.2714643E+00  0.1622468E+01
0.1534973E+01  0.3650914E+00  0.1529320E+01
0.1583157E+01  0.2286349E+00  0.1574071E+01
0.1586501E+01  0.1581416E+00  0.1574700E+01
0.1651985E+01  0.2274641E+00  0.1639124E+01
0.1619170E+01  0.2936434E+00  0.1608617E+01
0.1678889E+01  0.2641389E+00  0.1664077E+01
0.1642286E+01  0.2930521E+00  0.1630096E+01
0.1526415E+01  0.3446283E+00  0.1521370E+01
0.1662420E+01  0.3044259E+00  0.1648805E+01
0.1636786E+01  0.2469276E+00  0.1625161E+01
0.1588953E+01  0.3366240E+00  0.1580496E+01
0.1616427E+01  0.3314099E+00  0.1606212E+01
0.1598305E+01  0.3102698E+00  0.1589123E+01
0.1655410E+01  0.2614708E+00  0.1642317E+01
0.1487553E+01  0.3072167E+00  0.1484336E+01
0.1520126E+01  0.3036443E+00  0.1515315E+01
0.1477894E+01  0.2544664E+00  0.1474619E+01
0.1567847E+01  0.2133479E+00  0.1559220E+01
0.1663947E+01  0.3299725E+00  0.1650554E+01
0.1567022E+01  0.2696000E+00  0.1559533E+01
0.1678598E+01  0.3509559E+00  0.1663816E+01
0.1611933E+01  0.3827205E+00  0.1601577E+01
0.1640491E+01  0.3197373E+00  0.1628654E+01
0.1588015E+01  0.2526666E+00  0.1579198E+01
0.1708471E+01  0.3144917E+00  0.1691215E+01
0.1606944E+01  0.3564315E+00  0.1597145E+01
0.1604614E+01  0.2314093E+00  0.1594477E+01
0.1643491E+01  0.3631133E+00  0.1631266E+01
0.2000000E+01  0.5000000E+00  0.1960500E+01
0.1494727E+01  0.3621796E+00  0.1491263E+01
0.1701807E+01  0.3477237E+00  0.1684971E+01
0.1572156E+01  0.3701847E+00  0.1564542E+01
0.1688392E+01  0.3285111E+00  0.1673025E+01
0.1695932E+01  0.3904821E+00  0.1679523E+01
0.1636337E+01  0.3418163E+00  0.1624849E+01
0.1505941E+01  0.9448485E-01  0.1487131E+01
0.1423727E+01  0.1910920E+00  0.1420620E+01
0.1481447E+01  0.3359634E+00  0.1478771E+01
0.1441613E+01  0.3726133E+00  0.1440943E+01
0.1466699E+01  0.3599060E+00  0.1464758E+01
0.1476682E+01  0.4107296E+00  0.1474418E+01
0.1434448E+01  0.3273535E+00  0.1433999E+01
0.1464523E+01  0.3867258E+00  0.1462878E+01
0.1456903E+01  0.3373583E+00  0.1455487E+01
0.1454188E+01  0.3132491E+00  0.1452586E+01
0.1424069E+01  0.2919612E+00  0.1423496E+01
0.1490969E+01  0.3884111E+00  0.1487907E+01
0.1428051E+01  0.4202828E+00  0.1428329E+01
0.1513790E+01  0.3782958E+00  0.1509369E+01
0.1547789E+01  0.4092466E+00  0.1541689E+01
0.1535154E+01  0.3889763E+00  0.1529608E+01
0.1512699E+01  0.4170463E+00  0.1508672E+01
0.1441554E+01  0.3983607E+00  0.1441093E+01
0.1395941E+01  0.3853832E+00  0.1397653E+01
0.1420578E+01  0.3854393E+00  0.1421039E+01
0.1408336E+01  0.3518173E+00  0.1409206E+01
0.1549967E+01  0.3074339E+00  0.1543669E+01
0.1651639E+01  0.4114272E+00  0.1638840E+01
0.1668616E+01  0.3788978E+00  0.1654520E+01
0.1674624E+01  0.4027285E+00  0.1660216E+01
0.1706988E+01  0.4343785E+00  0.1689817E+01
0.1673984E+01  0.4357547E+00  0.1659433E+01
0.1695270E+01  0.4139894E+00  0.1679211E+01
0.1737273E+01  0.4034108E+00  0.1717080E+01
0.1645630E+01  0.3875965E+00  0.1633321E+01
0.1625874E+01  0.4052508E+00  0.1614820E+01
0.1627808E+01  0.4540126E+00  0.1617209E+01
0.1587158E+01  0.4136289E+00  0.1578695E+01
0.1633718E+01  0.4293591E+00  0.1622554E+01
0.1651607E+01  0.4466828E+00  0.1639113E+01
0.1605650E+01  0.4356658E+00  0.1596247E+01
0.1682168E+01  0.4808869E+00  0.1666708E+01
0.1671711E+01  0.4594749E+00  0.1657647E+01
0.1698428E+01  0.4596870E+00  0.1682141E+01
0.1646221E+01  0.4851828E+00  0.1634007E+01
0.1607747E+01  0.4151289E+00  0.1597969E+01
0.1584205E+01  0.4841185E+00  0.1576261E+01
0.1747573E+01  0.4622079E+00  0.1726393E+01
0.1568396E+01  0.4481495E+00  0.1561227E+01
0.1601760E+01  0.4629165E+00  0.1592895E+01
0.1723356E+01  0.4540167E+00  0.1704680E+01
0.1732897E+01  0.4294241E+00  0.1712948E+01
0.1722218E+01  0.4972746E+00  0.1703186E+01
0.1715121E+01  0.4754441E+00  0.1696958E+01
0.1584567E+01  0.4345797E+00  0.1576502E+01
0.1563465E+01  0.4258523E+00  0.1556696E+01
0.1534166E+01  0.4440258E+00  0.1528994E+01
0.1615090E+01  0.4918227E+00  0.1605279E+01
0.1717469E+01  0.4134541E+00  0.1699307E+01
0.1718488E+01  0.3909170E+00  0.1699922E+01
0.1741353E+01  0.3769080E+00  0.1720801E+01
0.1781199E+01  0.4241746E+00  0.1756421E+01
0.2000000E+01  0.2500000E+00  0.1960358E+01
0.1756308E+01  0.4199875E+00  0.1734309E+01
0.1762447E+01  0.3937207E+00  0.1739841E+01
0.1765097E+01  0.4438197E+00  0.1741965E+01
0.1807974E+01  0.4625425E+00  0.1778923E+01
0.1789176E+01  0.4471344E+00  0.1762904E+01
0.1514158E+01  0.1287364E+00  0.1502578E+01
0.1777674E+01  0.4803377E+00  0.1753156E+01
0.1811145E+01  0.4395021E+00  0.1782841E+01
0.1850404E+01  0.4566449E+00  0.1817417E+01
0.1748483E+01  0.3522599E+00  0.1727316E+01
0.1731235E+01  0.3304535E+00  0.1711912E+01
0.1777870E+01  0.3654441E+00  0.1754046E+01
0.1748149E+01  0.2821176E+00  0.1727100E+01
0.1732875E+01  0.3039003E+00  0.1713354E+01
0.1708314E+01  0.2807181E+00  0.1691304E+01
0.1767650E+01  0.3193756E+00  0.1744826E+01
0.1372661E+01  0.1704076E+00  0.1370154E+01
0.1411157E+01  0.2494459E+00  0.1410680E+01
0.1448000E+01  0.2246098E+00  0.1445304E+01
0.1360382E+01  0.2278583E+00  0.1361412E+01
0.1433680E+01  0.2431125E+00  0.1432166E+01
0.1388814E+01  0.2314916E+00  0.1388762E+01
0.1314549E+01  0.2124991E+00  0.1317083E+01
0.1404157E+01  0.2007613E+00  0.1402610E+01
0.1415035E+01  0.1072182E+00  0.1404597E+01
0.1520299E+01  0.1091515E+00  0.1505191E+01
0.1459010E+01  0.1690672E+00  0.1453425E+01
0.1436337E+01  0.2690050E+00  0.1435018E+01
0.1443480E+01  0.1263360E+00  0.1434930E+01
0.1625000E+01  0.0000000E+00  0.1594267E+01
0.1414954E+01  0.2197329E+00  0.1413463E+01
0.1335299E+01  0.2266424E+00  0.1337266E+01
0.1396801E+01  0.1612344E+00  0.1392615E+01
0.1792033E+01  0.3934232E+00  0.1766559E+01
0.1541310E+01  0.1264947E+00  0.1528483E+01
0.1483859E+01  0.1256971E+00  0.1472594E+01
0.1500341E+01  0.1139400E+00  0.1486964E+01
0.1498380E+01  0.1421255E+00  0.1488483E+01
0.1478242E+01  0.1468909E+00  0.1470111E+01
0.1453147E+01  0.1972183E+00  0.1449284E+01
0.1348833E+01  0.2067866E+00  0.1349740E+01
0.1368157E+01  0.2800764E+00  0.1369934E+01
0.1250000E+01  0.0000000E+00  0.1233331E+01
0.1496272E+01  0.2780308E-01  0.1471712E+01
0.1430228E+01  0.1622338E+00  0.1424773E+01
0.1544491E+01  0.1012427E+00  0.1526670E+01
0.1505524E+01  0.5428530E-01  0.1482875E+01
0.1576405E+01  0.1180891E+00  0.1560417E+01
0.1526885E+01  0.8834234E-01  0.1506260E+01
0.1558557E+01  0.6358195E-01  0.1534844E+01
0.1372206E+01  0.9428859E-01  0.1359890E+01
0.1414069E+01  0.8636887E-01  0.1399606E+01
0.1351230E+01  0.1581055E+00  0.1348787E+01
0.1371634E+01  0.2528708E+00  0.1372879E+01
0.1392978E+01  0.2694234E+00  0.1393541E+01
0.1321668E+01  0.2603105E+00  0.1325151E+01
0.1392566E+01  0.3027057E+00  0.1393610E+01
0.1345601E+01  0.2495441E+00  0.1347820E+01
0.1349996E+01  0.1827855E+00  0.1349502E+01
0.1475238E+01  0.9618066E-01  0.1458950E+01
0.1487372E+01  0.4556180E+00  0.1484921E+01
0.1432024E+01  0.3509343E+00  0.1431702E+01
0.1619231E+01  0.5383449E+00  0.1608875E+01
0.1532505E+01  0.4233173E+00  0.1527387E+01
0.1547332E+01  0.4788657E+00  0.1541687E+01
0.1627786E+01  0.4750493E+00  0.1616902E+01
0.1750658E+01  0.4911384E+00  0.1729042E+01
0.1783313E+01  0.5336292E+00  0.1757012E+01
0.1744147E+01  0.5299352E+00  0.1722252E+01
0.1772978E+01  0.5077787E+00  0.1748205E+01
0.1739682E+01  0.5092411E+00  0.1718530E+01
0.1715917E+01  0.5251974E+00  0.1697119E+01
0.1809547E+01  0.4999146E+00  0.1779916E+01
0.1486188E+01  0.5335558E+00  0.1483877E+01
0.1695320E+01  0.5058771E+00  0.1678913E+01
0.1793562E+01  0.5145404E+00  0.1765832E+01
0.1827482E+01  0.5355643E+00  0.1796081E+01
0.1805457E+01  0.5332234E+00  0.1776412E+01
0.1812320E+01  0.5734372E+00  0.1782986E+01
0.1794794E+01  0.5557356E+00  0.1767357E+01
0.1637325E+01  0.5533192E+00  0.1625601E+01
0.1761146E+01  0.5591762E+00  0.1737471E+01
0.1789115E+01  0.5788851E+00  0.1762087E+01
0.1693317E+01  0.6123782E+00  0.1677218E+01
0.1522396E+01  0.5359490E+00  0.1518211E+01
0.1814654E+01  0.6254783E+00  0.1785003E+01
0.1726166E+01  0.5505978E+00  0.1705988E+01
0.1691322E+01  0.5307786E+00  0.1675301E+01
0.1516987E+01  0.5143680E+00  0.1513233E+01
0.1661909E+01  0.5147686E+00  0.1648152E+01
0.1761865E+01  0.6508066E+00  0.1738196E+01
0.1692174E+01  0.5698207E+00  0.1676125E+01
0.1780214E+01  0.6037461E+00  0.1754636E+01
[...]
POINT_DATA    3280
SCALARS hauteur float
LOOKUP_TABLE DEFAULT
       2.3191259E-02
       7.3227889E-05
       2.1471862E-04
       2.3166061E-02
       1.1375324E-02
       1.1467015E-02
       2.7183435E-02
       4.2437765E-03
       1.5781728E-02
       2.5353979E-02
       2.5389946E-02
       2.2805897E-02
       2.2379070E-02
       2.2588864E-02
       2.4295508E-02
       3.9806867E-04
       2.2429639E-02
       2.4559534E-02
       1.5976757E-02
       2.0606543E-02
       2.3763378E-02
       2.3683560E-02
       2.5425403E-02
       2.4376342E-02
       2.4668159E-02
       2.4691338E-02
       2.3915712E-02
       2.1509958E-02
       2.6977413E-02
       2.4585008E-02
       2.6128891E-02
       2.5158146E-02
       2.6032325E-02
       2.6611202E-02
       2.0792572E-02
       2.3440701E-02
       2.3682096E-02
       2.1991892E-02
       2.1041500E-02
       2.4943377E-02
       2.2471202E-02
       1.9822753E-02
       2.0068993E-02
       2.1723272E-02
       1.8654339E-02
       2.0545608E-02
       2.5382444E-02
       1.9523038E-02
       2.1001056E-02
       2.3216941E-02
       2.2005875E-02
       2.2678406E-02
       1.9904583E-02
       2.6434719E-02
       2.5490013E-02
       2.6184811E-02
       2.2625131E-02
       1.9774973E-02
       2.3747123E-02
       1.8677671E-02
       2.1775627E-02
       2.0863349E-02
       2.2837743E-02
       1.6799703E-02
       2.2232719E-02
       2.1848108E-02
       2.0535097E-02
       3.6702931E-04
       2.6331222E-02
       1.7086700E-02
       2.3724714E-02
       1.8287902E-02
       1.7396406E-02
       2.1129337E-02
       1.1208762E-02
       2.5271875E-02
       2.6854242E-02
       2.8066335E-02
       2.7295570E-02
       2.7170460E-02
       2.8144386E-02
       2.7548080E-02
       2.7624492E-02
       2.7384467E-02
       2.7813020E-02
       2.6657804E-02
       2.8744728E-02
       2.5754587E-02
       2.4752735E-02
       2.5054261E-02
       2.6126782E-02
       2.8274062E-02
       2.9537922E-02
       2.8778493E-02
       2.8942857E-02
       2.4598791E-02
       2.0123990E-02
       1.9165775E-02
       1.8972414E-02
       1.6854915E-02
       1.8816863E-02
       1.7733742E-02
       1.4436568E-02
       2.0494077E-02
       2.1355171E-02
       2.1848828E-02
       2.3174463E-02
       2.1401817E-02
       2.0427923E-02
       2.2603421E-02
       1.8070865E-02
       1.9258135E-02
       1.7569253E-02
       2.0600624E-02
       2.2269278E-02
       2.3634465E-02
       1.3655577E-02
       2.4094599E-02
       2.3062724E-02
       1.5676782E-02
       1.4593102E-02
       1.5297522E-02
       1.6025488E-02
       2.3519940E-02
       2.4396516E-02
       2.5409378E-02
       2.2382973E-02
       1.6073409E-02
       1.5689472E-02
       1.4159161E-02
       1.0726489E-02
       2.2434971E-04
       1.3010332E-02
       1.2526019E-02
       1.2052196E-02
       6.9879637E-03
       9.3928077E-03
       1.8601836E-02
       1.0917481E-02
       7.7975492E-03
       3.8986161E-03
       1.3686900E-02
       1.5186592E-02
       1.1615001E-02
       1.3797605E-02
       1.5020796E-02
       1.7043034E-02
       1.2410996E-02
       2.4854381E-02
       2.7652276E-02
       2.6167794E-02
       2.8146922E-02
       2.7064251E-02
       2.7631574E-02
       2.8737739E-02
       2.6441862E-02
       1.7768587E-02
       1.5196879E-02
       2.3498801E-02
       2.7312530E-02
       2.0223349E-02
       1.6592175E-03
       2.6714097E-02
       2.8583799E-02
       2.3656905E-02
       1.0247616E-02
       1.7896749E-02
       1.8312931E-02
       1.6530519E-02
       1.9970869E-02
       2.1335926E-02
       2.5103253E-02
       2.7794005E-02
       2.9049024E-02
       8.2475574E-03
       5.2658692E-03
       2.3054250E-02
       1.2966323E-02
       7.3611133E-03
       1.5434950E-02
       9.8110750E-03
       7.3551732E-03
       1.5036510E-02
       1.3724768E-02
       2.4491906E-02
       2.8586727E-02
       2.8329356E-02
       2.9828484E-02
       2.8802852E-02
       2.9041410E-02
       2.6415488E-02
       1.3119260E-02
       2.7197395E-02
       2.8223093E-02
       2.1920699E-02
       2.5430242E-02
       2.5198492E-02
       2.1563299E-02
       1.3280019E-02
       9.2471971E-03
       1.2871753E-02
       1.0568673E-02
       1.3525625E-02
       1.5406681E-02
       6.4396747E-03
       2.7313721E-02
       1.7385818E-02
       8.0220264E-03
       5.0270624E-03
       6.9439245E-03
       6.7917252E-03
       8.3400390E-03
       2.0913051E-02
       1.1430704E-02
       8.6353561E-03
       1.7654778E-02
       2.6161854E-02
       6.5213411E-03
       1.4230305E-02
       1.7692892E-02
       2.6485147E-02
       1.9370377E-02
       1.1450357E-02
       1.7682116E-02
       9.9084077E-03
       2.4476932E-02
       1.9101189E-02
       1.2542929E-02
       2.3703790E-02
       1.8070365E-02
       1.3874905E-02
       1.3009864E-02
       1.5266733E-02
       1.4943899E-02
       5.7352360E-03
       7.5328594E-03
       3.8481814E-04
       1.1955907E-02
       3.5281078E-03
       9.6856441E-03
       1.1525682E-02
       1.8221283E-02
       1.5710204E-02
       8.6366906E-03
       5.7327374E-03
       5.8379489E-03
       7.7355371E-03
       9.1355742E-03
       9.2097500E-03
       1.1663213E-02
       2.0618981E-02
       2.6914190E-02
       1.7304133E-02
       1.8924812E-02
       2.1077803E-02
       2.2105493E-02
       7.2595310E-03
       1.0221770E-02
       6.8196695E-03
       3.1661742E-03
       2.9271669E-03
       4.2251179E-03
       1.1798393E-02
       1.1909476E-02
       3.3357327E-03
       1.6397279E-02
       6.0933165E-03
       1.5119068E-02
       4.4958015E-03
       1.0235257E-03
       1.1294915E-02
       1.9038123E-02
       1.7830515E-02
       1.9586393E-02
       9.3363817E-03
       1.7989239E-02
       2.2292575E-02
       2.1498571E-02
       2.6007364E-02
       2.4551659E-02
       2.1712698E-02
       2.5343784E-02
       1.2883594E-02
       6.4938884E-03
       2.1776958E-02
       9.7564497E-03
       2.0858323E-02
       7.2862395E-03
       2.8230130E-02
       2.8515625E-02
       2.9267403E-02
       2.9763051E-02
       3.0029202E-02
       2.6887454E-02
       2.6205787E-02
       2.7888296E-02
       2.5868965E-02
       2.6133263E-02
       2.3210447E-02
       2.5360408E-02
       2.0575721E-02
       2.4929902E-02
       2.4276635E-02
       8.1526249E-03
       5.5080107E-03
       4.3804366E-03
       1.1072055E-02
       1.9355471E-02
       4.8524707E-03
       7.3672991E-03
       2.1071232E-02
       2.3453559E-02
       6.9329105E-03
       1.6293583E-02
       7.5951016E-03
       1.4982116E-02
       1.1767264E-02
       1.3413202E-02
       1.3780600E-02
       7.4983264E-03
       3.8616972E-03
       1.3836118E-04
       9.4148501E-03
       2.1362956E-03
       1.2156905E-02
       9.1353078E-03
       1.9446097E-02
       4.1871751E-04
       5.1791130E-03
       1.1336147E-02
       9.9455833E-03
       1.7207661E-02
       1.5642611E-02
       3.8876802E-03
       2.2470585E-02
       1.8941734E-03
       1.4057454E-02
       2.4769301E-02
       1.6485066E-03
       8.0631345E-04
       1.6610771E-02
       1.6192441E-02
       1.8127080E-02
       1.8377331E-02
       9.1686768E-03
       1.8414670E-02
       1.7237592E-02
       1.8079873E-02
       1.9835229E-02
       1.6767555E-02
       1.1757530E-02
       1.5264251E-02
       1.7030409E-02
       5.7434812E-04
       5.3878300E-03
       5.5034959E-03
       7.9294209E-03
       4.3967455E-03
       4.3262565E-03
       2.0700764E-03
       2.0737774E-03
       1.3339446E-03
       1.8225132E-02
       1.9841335E-02
       1.6562420E-02
       1.3775257E-02
       1.7540004E-02
       1.1412095E-02
       5.4917247E-03
       9.8288045E-03
       5.9745602E-03
       4.9277899E-03
       3.6841189E-03
       5.2991935E-03
       6.4285739E-03
       2.7755335E-02
       3.1044738E-02
       2.9335371E-02
       2.9937037E-02
       3.0882554E-02
       2.9509585E-02
       3.0406612E-02
       3.1421588E-02
       3.1107006E-02
       3.2254980E-02
       3.0603647E-02
       3.1742546E-02
       3.2808105E-02
       3.2201411E-02
       3.1890390E-02
       3.1990509E-02
       3.1067581E-02
       2.9724355E-02
       2.9227998E-02
       2.9155708E-02
       2.9063395E-02
       3.0048916E-02
       3.0693873E-02
       3.0794557E-02
       2.7471965E-02
       2.4668691E-02
       2.7670963E-02
       2.6288730E-02
       2.4896829E-02
       2.9932380E-02
       3.1082773E-02
       3.0734356E-02
       3.0382426E-02
       3.0364205E-02
       3.0937850E-02
       3.2196183E-02
       3.1663331E-02
       3.0161323E-02
       3.1523349E-02
       3.2043894E-02
       3.2301551E-02
       3.1636194E-02
       3.0606845E-02
       3.0920820E-02
       3.3526638E-02
       3.1521104E-02
       3.3382437E-02
       3.2866267E-02
       3.2839422E-02
       3.2886725E-02
       3.3924577E-02
       3.3346662E-02
       3.3196953E-02
       3.2752572E-02
       3.3303961E-02
       3.4365563E-02
       3.3786003E-02
       3.4140934E-02
       3.3062626E-02
       3.5171935E-02
       3.2732664E-02
       3.4496695E-02
       3.1730864E-02
       3.3738834E-02
       3.4728239E-02
       3.5409066E-02
       3.5265028E-02
       3.6250756E-02
       3.5763370E-02
       3.5198774E-02
       3.4235881E-02
       3.2409137E-02
       3.3223364E-02
       3.5780085E-02
       3.5875781E-02
       3.6037742E-02
       3.6837415E-02
       3.6537263E-02
       3.4973440E-02
       3.6514061E-02
       3.1909933E-02
       3.2805171E-02
       3.6341867E-02
       3.6225804E-02
       3.5795107E-02
       3.6373333E-02
       3.6754071E-02
       3.1057123E-02
       3.2818712E-02
       3.7341435E-02
       3.2207638E-02
       3.3924370E-02
       3.6966319E-02
       3.7248924E-02
       3.1034167E-02
       3.3496148E-02
       3.4133494E-02
       3.6885756E-02
       3.7299662E-02
       3.7233162E-02
       3.8071027E-02
       3.7771616E-02
       3.1592875E-02
       3.1020195E-02
       3.1832278E-02
       2.9643184E-02
       3.1938537E-02
       3.0355639E-02
       3.0479209E-02
       3.0188372E-02
       3.7814598E-02
       3.8736375E-02
       2.9502241E-02
       3.7605887E-02
       3.8082509E-02
       3.7555982E-02
       3.8344680E-02
       2.8778894E-02
       2.9857622E-02
       2.9277167E-02
       2.8388694E-02
       2.8970180E-02
       2.9068018E-02
       3.7876569E-02
       3.7375107E-02
       3.8328726E-02
       3.7575083E-02
       2.8265844E-02
       2.7715067E-02
       3.7019300E-02
       3.8787326E-02
       3.8113115E-02
       3.6473270E-02
       2.7947427E-02
       3.8546387E-02
       3.7009358E-02
       3.6382674E-02
       2.8654827E-02
       3.8050821E-02
       3.8648087E-02
       3.7271717E-02
       3.9500565E-02
       3.7411034E-02
       3.9164238E-02
       3.9113187E-02
       3.9140583E-02
       3.9388313E-02
       3.9116983E-02
       3.8717303E-02
       3.8595074E-02
       3.9850566E-02
       3.9494021E-02
       3.9985909E-02
       3.9557737E-02
       3.9770934E-02
       2.7926249E-02
       6.0405665E-03
       3.8013612E-03
       1.4808954E-03
       2.6876724E-03
       1.6170753E-03
       2.3827073E-03
       2.1947898E-03
       3.2541780E-03
       3.7214254E-03
       3.1586227E-03
       4.3490071E-03
       1.8778316E-04
       3.4930880E-04
       1.8918723E-03
       2.1811932E-03
       1.3280455E-03
       7.0890658E-04
       2.2940324E-03
       4.7158362E-04
       4.6769976E-04
       1.4480160E-03
       8.7715811E-04
       4.9787568E-04
       8.1770025E-04
       2.0124162E-04
       2.7018055E-02
       1.9780216E-02
       1.8500117E-02
       2.1255286E-02
       1.9550381E-02
       2.0238718E-02
       2.1489433E-02
       2.5709028E-02
       2.4079902E-02
       2.4932581E-02
       2.5942807E-02
       2.4253778E-02
       2.5035002E-02
       2.3104908E-02
       2.5183513E-02
       2.6029198E-02
       2.5312429E-02
       2.6853565E-02
       2.7580109E-02
       2.6719494E-02
       2.5580210E-02
       2.3767993E-02
       2.4704942E-02
       2.3697740E-02
       2.4449533E-02
       2.5383022E-02
       2.4593041E-02
       2.3447094E-02
       2.4440541E-02
       2.3867162E-02
       2.4231926E-02
       2.1996807E-02
       2.4249540E-02
       2.2153881E-02
       2.5538095E-02
       2.3263699E-02
       2.5218349E-02
       2.6219203E-02
       2.2597168E-02
       2.3031537E-02
       2.4142235E-02
       2.6258751E-02
       2.7155735E-02
       2.6478834E-02
       2.5493410E-02
       2.7806813E-02
       2.6150557E-02
       2.6643078E-02
       2.6132650E-02
       2.5067740E-02
       2.7086895E-02
       2.6979391E-02
       2.8282681E-02
       2.7084389E-02
       2.7688153E-02
       2.9100521E-02
       2.8402638E-02
       2.9479553E-02
       1.0662040E-02
       1.3378739E-02
       1.5513323E-02
       1.6596310E-02
       1.5813809E-02
       1.3504301E-02
       5.2809785E-03
       1.2927966E-03
       5.5749706E-03
       2.5131230E-03
       1.6722972E-02
       2.0508726E-02
       1.3380357E-02
       1.1873144E-02
       1.8708303E-02
       1.9048888E-02
       1.7338226E-02
       1.5006675E-02
       1.5499447E-02
       1.6633806E-02
       1.6725254E-02
       1.8347744E-02
       1.2986316E-02
       1.1346269E-02
       1.3626792E-02
       1.3450713E-02
       1.0803301E-02
       1.2065300E-02
       1.3422318E-02
       7.3576854E-03
       7.1481358E-03
       9.9024646E-03
       7.0661423E-03
       8.9373110E-03
       8.9702758E-03
       1.4659039E-02
       6.9235816E-03
       9.3319049E-03
       5.0473735E-03
       2.5959002E-03
       2.6915651E-03
       1.6106733E-03
       2.0959093E-02
       1.9304840E-02
       1.8916985E-02
       6.3280190E-03
       7.4049886E-03
       7.9998142E-03
       5.6126000E-03
       5.8702408E-03
       4.1943953E-03
       2.7710320E-02
       2.6947338E-02
       2.8786703E-02
       2.6946738E-02
       2.8934637E-02
       2.5232508E-02
       3.0161069E-02
       2.4768238E-02
       3.1296103E-02
       2.9975508E-02
       2.6919529E-02
       2.8224523E-02
       1.6949473E-02
       3.0850401E-02
       2.1868515E-02
       2.2167237E-02
       1.0034944E-02
       2.0772707E-02
       3.1986232E-02
       1.4068509E-02
       1.1218226E-02
       1.4362229E-02
       1.4087064E-02
       3.0482102E-02
       3.1956163E-02
       2.4100147E-02
       2.2729641E-02
       3.1404760E-02
       3.3588584E-02
       3.3789516E-02
       3.1292763E-02
       3.3481520E-02
       3.5228985E-02
       3.4838444E-02
       3.7663700E-02
       3.6505290E-02
       3.8441009E-02
       3.7964138E-02
       3.8405641E-02
       3.7848986E-02
       3.8465804E-02
       3.9389822E-02
       3.8918684E-02
       3.8974738E-02
       3.8957270E-02
       3.6251938E-02
       3.6967395E-02
       3.5560847E-02
       3.6829701E-02
       3.8970821E-02
       3.9128821E-02
       3.8473007E-02
       3.8235992E-02
       3.8556188E-02
       3.9706406E-02
       4.0618294E-02
       3.2914881E-03
       4.5883452E-04
       1.0355344E-03
       2.7545957E-04
       2.2015773E-02
       2.2916749E-02
       2.0370092E-02
       2.1435380E-02
       2.2266195E-02
       2.6956956E-02
       2.8562110E-02
       2.8232696E-02
       2.2830258E-02
       2.1710443E-02
       2.0545828E-02
       2.6118097E-02
       2.5385696E-02
       2.2369025E-02
       2.8248231E-02
       3.0296185E-02
       2.0489284E-03
       1.0077100E-03
       3.1862971E-03
       1.3618286E-03
       1.8991671E-03
       5.2433664E-03
       4.1603949E-04
       1.7749109E-03
       1.7433983E-04
       3.5742151E-04
       3.9399958E-04
       6.1600434E-04
       3.1268942E-04
       8.3257775E-04
       1.8619455E-04
       8.0178304E-03
       9.7794482E-03
       2.7065861E-03
       4.0198301E-03
       1.8998147E-02
       1.9424955E-02
       2.1052009E-02
       2.0971041E-02
       2.1982121E-02
       2.2777168E-02
       2.3334130E-02
       1.1659908E-02
       1.0925958E-02
       1.5105594E-02
       1.5959331E-02
       5.7602089E-03
       1.3211675E-02
       1.4309796E-02
       3.4812051E-03
       1.3362516E-02
       1.5905632E-02
       1.7444283E-02
       1.7292929E-02
       1.8621341E-02
       1.7073296E-02
       8.3436636E-04
       1.8837970E-02
       1.5290457E-02
       1.8510689E-02
       1.4344355E-02
       1.4471973E-02
       1.3947303E-02
       7.2277900E-03
       1.1070449E-02
       8.9039742E-03
       1.0057827E-02
       8.6828642E-03
       3.9334315E-03
       1.5234604E-03
       1.7788893E-02
       1.7037077E-02
       1.9235094E-02
       1.1153862E-02
       1.1309904E-02
       9.7283990E-03
       1.3569382E-02
       1.2066872E-02
       1.0829163E-02
       1.5621665E-02
       5.4339904E-03
       1.6174691E-03
       1.0941796E-03
       2.2183554E-02
       1.7525084E-02
       1.1835751E-02
       1.3994771E-02
       1.1237312E-02
       1.6289129E-02
       1.8720429E-02
       1.7585264E-02
       3.2824368E-02
       3.4536410E-02
       3.4596577E-02
       3.4910942E-02
       3.4797942E-02
       3.5294379E-02
       3.4228872E-02
       3.4132693E-02
       3.4811047E-02
       3.4166904E-02
       3.7708974E-02
       3.7684756E-02
       4.1844789E-02
       3.6831174E-02
       3.6095513E-02
       3.9819811E-02
       3.9224490E-02
       3.9922289E-02
       3.9190122E-02
       3.8042962E-02
       4.0752494E-02
       3.3271224E-02
       4.0487486E-02
       4.1358703E-02
       3.6203571E-02
       3.2614990E-02
       4.1416700E-02
       4.1167400E-02
       3.9653264E-02
       3.9949457E-02
       4.0104209E-02
       3.3166624E-02
       4.0854096E-02
       3.6549724E-02
       4.0482397E-02
       3.5176937E-02
       4.1075671E-02
       4.0352531E-02
       4.0793839E-02
       4.0542906E-02
       4.0961858E-02
       3.9721478E-02
       4.1435647E-02
       3.7926294E-02
       4.1202346E-02
       3.7483386E-02
       3.6892659E-02
       4.1040118E-02
       4.1435018E-02
       3.8212519E-02
       3.6701728E-02
       1.6736285E-02
       4.1721973E-02
       1.4673551E-02
       4.2026446E-02
       3.8303850E-02
       4.1911741E-02
       3.5036564E-02
       3.3903438E-02
       4.1946017E-02
       4.2286858E-02
       4.2254651E-02
       4.2684165E-02
       4.1706167E-02
       4.1648928E-02
       3.7419301E-02
       3.5960767E-02
       3.7202798E-02
       3.5337129E-02
       3.4682756E-02
       4.0308213E-02
       3.5950452E-02
       3.7236468E-02
       3.4349639E-02
       3.5212217E-02
       3.6231074E-02
       4.3138600E-02
       3.8612873E-02
       4.0952632E-02
       3.6110565E-02
       4.0700944E-02
       3.6544849E-02
       3.5930452E-02
       3.4917187E-02
       3.4117797E-02
       3.5476503E-02
       3.5982321E-02
       3.6105440E-02
       3.5756003E-02
       3.5276924E-02
       3.5704940E-02
       3.4771009E-02
       3.5637216E-02
       3.4038428E-02
       3.3751219E-02
       3.4403441E-02
       3.3688661E-02
       3.4421912E-02
       3.5059645E-02
       3.4593044E-02
       3.3828215E-02
       3.3085415E-02
       3.2886595E-02
       3.2741386E-02
       3.1668100E-02
       3.3422652E-02
       3.3737547E-02
       3.7077166E-02
       3.8916065E-02
       3.8035428E-02
       3.8434123E-02
       3.9472297E-02
       4.0322980E-02
       4.0094610E-02
       4.0325446E-02
       4.0117254E-02
       3.9726452E-02
       4.0437683E-02
       4.0006432E-02
       4.0894315E-02
       4.0032399E-02
       4.0806175E-02
       4.0546248E-02
       4.1144618E-02
       4.0313943E-02
       4.0361002E-02
       4.0335814E-02
       3.9589505E-02
       4.0681620E-02
       4.0011064E-02
       3.9772903E-02
       4.0518580E-02
       4.0582654E-02