# vtk DataFile Version 3.0
# Solution du M1 TR
ASCII
DATASET UNSTRUCTURED_GRID
POINTS   3280  float
0.0000000E+00  0.0000000E+00  0.2349855E-01
0.2000000E+01  0.0000000E+00  0.1960265E+01
0.2000000E+01  0.1000000E+01  0.1960420E+01
0.0000000E+00  0.1000000E+01  0.2372359E-01
0.1000000E+01  0.0000000E+00  0.9924403E+00
0.1000000E+01  0.1000000E+01  0.9920029E+00
0.1500000E+01  0.5000000E+00  0.1496023E+01
0.1500000E+01  0.0000000E+00  0.1473224E+01
0.1723284E+01  0.3570951E+00  0.1700898E+01
0.1500000E+01  0.2500000E+00  0.1495085E+01
0.1515103E+01  0.2763186E+00  0.1509600E+01
0.1594866E+01  0.2826386E+00  0.1584088E+01
0.1562500E+01  0.1875000E+00  0.1552845E+01
0.1534357E+01  0.1819434E+00  0.1525748E+01
0.1561083E+01  0.3343258E+00  0.1552865E+01
0.1750000E+01  0.0000000E+00  0.1715432E+01
0.1503267E+01  0.1622339E+00  0.1495306E+01
0.1514910E+01  0.2261192E+00  0.1508819E+01
0.1610795E+01  0.1290247E+00  0.1592390E+01
0.1539062E+01  0.1536458E+00  0.1528101E+01
0.1510772E+01  0.1982718E+00  0.1504023E+01
0.1541862E+01  0.2179813E+00  0.1534109E+01
0.1475030E+01  0.2178147E+00  0.1470934E+01
0.1539206E+01  0.2578835E+00  0.1532000E+01
0.1521085E+01  0.2465697E+00  0.1514814E+01
0.1496499E+01  0.2146241E+00  0.1491106E+01
0.1481433E+01  0.1870688E+00  0.1475631E+01
0.1586261E+01  0.1960616E+00  0.1574753E+01
0.1460896E+01  0.2899333E+00  0.1458447E+01
0.1542195E+01  0.2867649E+00  0.1534967E+01
0.1486080E+01  0.2754813E+00  0.1482150E+01
0.1536278E+01  0.3247610E+00  0.1529725E+01
0.1510131E+01  0.3295675E+00  0.1505194E+01
0.1455545E+01  0.2514402E+00  0.1453028E+01
0.1610995E+01  0.1909452E+00  0.1597764E+01
0.1564462E+01  0.2395252E+00  0.1555634E+01
0.1571524E+01  0.3026484E+00  0.1562361E+01
0.1613657E+01  0.2555806E+00  0.1601429E+01
0.1633998E+01  0.2714643E+00  0.1619949E+01
0.1534973E+01  0.3650914E+00  0.1527934E+01
0.1583157E+01  0.2286349E+00  0.1572695E+01
0.1586501E+01  0.1581416E+00  0.1573288E+01
0.1651985E+01  0.2274641E+00  0.1636382E+01
0.1619170E+01  0.2936434E+00  0.1606327E+01
0.1678889E+01  0.2641389E+00  0.1660669E+01
0.1642286E+01  0.2930521E+00  0.1627310E+01
0.1526415E+01  0.3446283E+00  0.1520228E+01
0.1662420E+01  0.3044259E+00  0.1645628E+01
0.1636786E+01  0.2469276E+00  0.1622731E+01
0.1588953E+01  0.3366240E+00  0.1578686E+01
0.1616427E+01  0.3314099E+00  0.1603960E+01
0.1598305E+01  0.3102698E+00  0.1587178E+01
0.1655410E+01  0.2614708E+00  0.1639330E+01
0.1487553E+01  0.3072167E+00  0.1483718E+01
0.1520126E+01  0.3036443E+00  0.1514423E+01
0.1477894E+01  0.2544664E+00  0.1474371E+01
0.1567847E+01  0.2133479E+00  0.1558172E+01
0.1663947E+01  0.3299725E+00  0.1647546E+01
0.1567022E+01  0.2696000E+00  0.1558216E+01
0.1678598E+01  0.3509559E+00  0.1660506E+01
0.1611933E+01  0.3827205E+00  0.1598976E+01
0.1640491E+01  0.3197373E+00  0.1625981E+01
0.1588015E+01  0.2526666E+00  0.1577624E+01
0.1708471E+01  0.3144917E+00  0.1687540E+01
0.1606944E+01  0.3564315E+00  0.1594885E+01
0.1604614E+01  0.2314093E+00  0.1592648E+01
0.1643491E+01  0.3631133E+00  0.1628433E+01
0.2000000E+01  0.5000000E+00  0.1960529E+01
0.1494727E+01  0.3621796E+00  0.1490376E+01
0.1701807E+01  0.3477237E+00  0.1681341E+01
0.1572156E+01  0.3701847E+00  0.1562746E+01
0.1688392E+01  0.3285111E+00  0.1669610E+01
0.1695932E+01  0.3904821E+00  0.1675859E+01
0.1636337E+01  0.3418163E+00  0.1622256E+01
0.1505941E+01  0.9448485E-01  0.1485550E+01
0.1423727E+01  0.1910920E+00  0.1420686E+01
0.1481447E+01  0.3359634E+00  0.1478109E+01
0.1441613E+01  0.3726133E+00  0.1440421E+01
0.1466699E+01  0.3599060E+00  0.1464102E+01
0.1476682E+01  0.4107296E+00  0.1473604E+01
0.1434448E+01  0.3273535E+00  0.1433659E+01
0.1464523E+01  0.3867258E+00  0.1462216E+01
0.1456903E+01  0.3373583E+00  0.1454986E+01
0.1454188E+01  0.3132491E+00  0.1452163E+01
0.1424069E+01  0.2919612E+00  0.1423297E+01
0.1490969E+01  0.3884111E+00  0.1487025E+01
0.1428051E+01  0.4202828E+00  0.1427881E+01
0.1513790E+01  0.3782958E+00  0.1508242E+01
0.1547789E+01  0.4092466E+00  0.1540029E+01
0.1535154E+01  0.3889763E+00  0.1528163E+01
0.1512699E+01  0.4170463E+00  0.1507531E+01
0.1441554E+01  0.3983607E+00  0.1440580E+01
0.1395941E+01  0.3853832E+00  0.1397419E+01
0.1420578E+01  0.3854393E+00  0.1420665E+01
0.1408336E+01  0.3518173E+00  0.1408932E+01
0.1549967E+01  0.3074339E+00  0.1542467E+01
0.1651639E+01  0.4114272E+00  0.1635505E+01
0.1668616E+01  0.3788978E+00  0.1651279E+01
0.1674624E+01  0.4027285E+00  0.1656743E+01
0.1706988E+01  0.4343785E+00  0.1685657E+01
0.1673984E+01  0.4357547E+00  0.1655594E+01
0.1695270E+01  0.4139894E+00  0.1675379E+01
0.1737273E+01  0.4034108E+00  0.1712994E+01
0.1645630E+01  0.3875965E+00  0.1630303E+01
0.1625874E+01  0.4052508E+00  0.1611941E+01
0.1627808E+01  0.4540126E+00  0.1614126E+01
0.1587158E+01  0.4136289E+00  0.1576484E+01
0.1633718E+01  0.4293591E+00  0.1619488E+01
0.1651607E+01  0.4466828E+00  0.1635530E+01
0.1605650E+01  0.4356658E+00  0.1593584E+01
0.1682168E+01  0.4808869E+00  0.1662192E+01
0.1671711E+01  0.4594749E+00  0.1653550E+01
0.1698428E+01  0.4596870E+00  0.1677843E+01
0.1646221E+01  0.4851828E+00  0.1630039E+01
0.1607747E+01  0.4151289E+00  0.1595395E+01
0.1584205E+01  0.4841185E+00  0.1573339E+01
0.1747573E+01  0.4622079E+00  0.1722111E+01
0.1568396E+01  0.4481495E+00  0.1558968E+01
0.1601760E+01  0.4629165E+00  0.1590103E+01
0.1723356E+01  0.4540167E+00  0.1700329E+01
0.1732897E+01  0.4294241E+00  0.1708720E+01
0.1722218E+01  0.4972746E+00  0.1698504E+01
0.1715121E+01  0.4754441E+00  0.1692385E+01
0.1584567E+01  0.4345797E+00  0.1574171E+01
0.1563465E+01  0.4258523E+00  0.1554791E+01
0.1534166E+01  0.4440258E+00  0.1527332E+01
0.1615090E+01  0.4918227E+00  0.1601777E+01
0.1717469E+01  0.4134541E+00  0.1695269E+01
0.1718488E+01  0.3909170E+00  0.1695984E+01
0.1741353E+01  0.3769080E+00  0.1716857E+01
0.1781199E+01  0.4241746E+00  0.1752786E+01
0.2000000E+01  0.2500000E+00  0.1960360E+01
0.1756308E+01  0.4199875E+00  0.1730269E+01
0.1762447E+01  0.3937207E+00  0.1735950E+01
0.1765097E+01  0.4438197E+00  0.1737978E+01
0.1807974E+01  0.4625425E+00  0.1776336E+01
0.1789176E+01  0.4471344E+00  0.1759539E+01
0.1514158E+01  0.1287364E+00  0.1501537E+01
0.1777674E+01  0.4803377E+00  0.1749377E+01
0.1811145E+01  0.4395021E+00  0.1779988E+01
0.1850404E+01  0.4566449E+00  0.1816045E+01
0.1748483E+01  0.3522599E+00  0.1723510E+01
0.1731235E+01  0.3304535E+00  0.1708115E+01
0.1777870E+01  0.3654441E+00  0.1750398E+01
0.1748149E+01  0.2821176E+00  0.1723270E+01
0.1732875E+01  0.3039003E+00  0.1709558E+01
0.1708314E+01  0.2807181E+00  0.1687623E+01
0.1767650E+01  0.3193756E+00  0.1741203E+01
0.1372661E+01  0.1704076E+00  0.1370274E+01
0.1411157E+01  0.2494459E+00  0.1410754E+01
0.1448000E+01  0.2246098E+00  0.1445324E+01
0.1360382E+01  0.2278583E+00  0.1361606E+01
0.1433680E+01  0.2431125E+00  0.1432179E+01
0.1388814E+01  0.2314916E+00  0.1388918E+01
0.1314549E+01  0.2124991E+00  0.1317311E+01
0.1404157E+01  0.2007613E+00  0.1402770E+01
0.1415035E+01  0.1072182E+00  0.1404111E+01
0.1520299E+01  0.1091515E+00  0.1503676E+01
0.1459010E+01  0.1690672E+00  0.1453301E+01
0.1436337E+01  0.2690050E+00  0.1434903E+01
0.1443480E+01  0.1263360E+00  0.1434573E+01
0.1625000E+01  0.0000000E+00  0.1593664E+01
0.1414954E+01  0.2197329E+00  0.1413570E+01
0.1335299E+01  0.2266424E+00  0.1337484E+01
0.1396801E+01  0.1612344E+00  0.1392622E+01
0.1792033E+01  0.3934232E+00  0.1763090E+01
0.1541310E+01  0.1264947E+00  0.1527199E+01
0.1483859E+01  0.1256971E+00  0.1471811E+01
0.1500341E+01  0.1139400E+00  0.1485762E+01
0.1498380E+01  0.1421255E+00  0.1487780E+01
0.1478242E+01  0.1468909E+00  0.1469704E+01
0.1453147E+01  0.1972183E+00  0.1449269E+01
0.1348833E+01  0.2067866E+00  0.1349955E+01
0.1368157E+01  0.2800764E+00  0.1370010E+01
0.1250000E+01  0.0000000E+00  0.1233482E+01
0.1496272E+01  0.2780308E-01  0.1470427E+01
0.1430228E+01  0.1622338E+00  0.1424671E+01
0.1544491E+01  0.1012427E+00  0.1524865E+01
0.1505524E+01  0.5428530E-01  0.1481343E+01
0.1576405E+01  0.1180891E+00  0.1558645E+01
0.1526885E+01  0.8834234E-01  0.1504450E+01
0.1558557E+01  0.6358195E-01  0.1533004E+01
0.1372206E+01  0.9428859E-01  0.1359500E+01
0.1414069E+01  0.8636887E-01  0.1398938E+01
0.1351230E+01  0.1581055E+00  0.1348891E+01
0.1371634E+01  0.2528708E+00  0.1373024E+01
0.1392978E+01  0.2694234E+00  0.1393602E+01
0.1321668E+01  0.2603105E+00  0.1325328E+01
0.1392566E+01  0.3027057E+00  0.1393563E+01
0.1345601E+01  0.2495441E+00  0.1348003E+01
0.1349996E+01  0.1827855E+00  0.1349688E+01
0.1475238E+01  0.9618066E-01  0.1457735E+01
0.1487372E+01  0.4556180E+00  0.1483940E+01
0.1432024E+01  0.3509343E+00  0.1431266E+01
0.1619231E+01  0.5383449E+00  0.1604646E+01
0.1532505E+01  0.4233173E+00  0.1525914E+01
0.1547332E+01  0.4788657E+00  0.1539570E+01
0.1627786E+01  0.4750493E+00  0.1613466E+01
0.1750658E+01  0.4911384E+00  0.1724714E+01
0.1783313E+01  0.5336292E+00  0.1753636E+01
0.1744147E+01  0.5299352E+00  0.1717833E+01
0.1772978E+01  0.5077787E+00  0.1744444E+01
0.1739682E+01  0.5092411E+00  0.1714039E+01
0.1715917E+01  0.5251974E+00  0.1692306E+01
0.1809547E+01  0.4999146E+00  0.1777562E+01
0.1486188E+01  0.5335558E+00  0.1482637E+01
0.1695320E+01  0.5058771E+00  0.1674114E+01
0.1793562E+01  0.5145404E+00  0.1762896E+01
0.1827482E+01  0.5355643E+00  0.1794299E+01
0.1805457E+01  0.5332234E+00  0.1773872E+01
0.1812320E+01  0.5734372E+00  0.1780491E+01
0.1794794E+01  0.5557356E+00  0.1764308E+01
0.1637325E+01  0.5533192E+00  0.1621007E+01
0.1761146E+01  0.5591762E+00  0.1733413E+01
0.1789115E+01  0.5788851E+00  0.1758919E+01
0.1693317E+01  0.6123782E+00  0.1672781E+01
0.1522396E+01  0.5359490E+00  0.1516267E+01
0.1814654E+01  0.6254783E+00  0.1782690E+01
0.1726166E+01  0.5505978E+00  0.1701261E+01
0.1691322E+01  0.5307786E+00  0.1670352E+01
0.1516987E+01  0.5143680E+00  0.1511535E+01
0.1661909E+01  0.5147686E+00  0.1643370E+01
0.1761865E+01  0.6508066E+00  0.1734562E+01
0.1692174E+01  0.5698207E+00  0.1671188E+01
0.1780214E+01  0.6037461E+00  0.1751092E+01
[...]
POINT_DATA    3280
SCALARS hauteur float
LOOKUP_TABLE DEFAULT
       2.3498546E-02
       1.3191225E-04
       2.8650575E-04
       2.3723591E-02
       1.2373691E-02
       1.1936307E-02
       2.5922824E-02
       3.1239281E-03
       1.1965213E-02
       2.4984804E-02
       2.4698312E-02
       2.1013514E-02
       2.1490804E-02
       2.1975530E-02
       2.2899611E-02
       3.1505573E-04
       2.2003925E-02
       2.4106372E-02
       1.3703260E-02
       1.9717753E-02
       2.3366483E-02
       2.2982194E-02
       2.5306611E-02
       2.3476311E-02
       2.4048771E-02
       2.4437203E-02
       2.3728098E-02
       2.0111007E-02
       2.6671572E-02
       2.3513815E-02
       2.5692642E-02
       2.4070129E-02
       2.5165102E-02
       2.6497342E-02
       1.8881602E-02
       2.2356666E-02
       2.2162823E-02
       1.9937504E-02
       1.8522506E-02
       2.3557395E-02
       2.1095504E-02
       1.8410603E-02
       1.7326643E-02
       1.9432741E-02
       1.5246240E-02
       1.7760165E-02
       2.4240491E-02
       1.6346111E-02
       1.8571387E-02
       2.1405995E-02
       1.9754329E-02
       2.0733089E-02
       1.6917186E-02
       2.5816801E-02
       2.4597743E-02
       2.5936755E-02
       2.1577812E-02
       1.6767384E-02
       2.2429716E-02
       1.5367884E-02
       1.9174501E-02
       1.8190459E-02
       2.1263969E-02
       1.3124940E-02
       1.9973624E-02
       2.0018975E-02
       1.7702040E-02
       3.9584443E-04
       2.5443892E-02
       1.3456589E-02
       2.1929100E-02
       1.4873553E-02
       1.3732179E-02
       1.8536716E-02
       9.6282466E-03
       2.5338381E-02
       2.6191874E-02
       2.7544761E-02
       2.6639555E-02
       2.6357169E-02
       2.7804828E-02
       2.6886309E-02
       2.7124126E-02
       2.6962174E-02
       2.7613958E-02
       2.5776478E-02
       2.8296302E-02
       2.4627036E-02
       2.3092039E-02
       2.3609862E-02
       2.4985388E-02
       2.7760396E-02
       2.9303874E-02
       2.8404563E-02
       2.8669388E-02
       2.3396572E-02
       1.6788537E-02
       1.5924857E-02
       1.5499719E-02
       1.2694856E-02
       1.4977621E-02
       1.3901883E-02
       1.0350710E-02
       1.7475527E-02
       1.8476310E-02
       1.8766495E-02
       2.0962835E-02
       1.8336079E-02
       1.6845337E-02
       1.9939759E-02
       1.3555070E-02
       1.5161174E-02
       1.3271034E-02
       1.6632215E-02
       1.9695877E-02
       2.0712719E-02
       9.3736091E-03
       2.1835099E-02
       2.0271599E-02
       1.1325530E-02
       1.0365077E-02
       1.0615854E-02
       1.1452759E-02
       2.1189531E-02
       2.2490933E-02
       2.3747878E-02
       1.8881294E-02
       1.2035660E-02
       1.1751393E-02
       1.0215271E-02
       7.0921238E-03
       2.2682192E-04
       8.9698051E-03
       8.6347497E-03
       8.0654372E-03
       4.4012854E-03
       6.0281712E-03
       1.7560570E-02
       7.1385030E-03
       4.9445810E-03
       2.5260245E-03
       9.8806886E-03
       1.1389322E-02
       7.9673129E-03
       9.9677512E-03
       1.1224419E-02
       1.3362023E-02
       8.7884811E-03
       2.4975189E-02
       2.7726227E-02
       2.6187168E-02
       2.8340570E-02
       2.7076869E-02
       2.7788381E-02
       2.8965545E-02
       2.6602209E-02
       1.7282053E-02
       1.3681122E-02
       2.3374718E-02
       2.7197608E-02
       1.9866385E-02
       1.0557757E-03
       2.6821629E-02
       2.8801307E-02
       2.3663843E-02
       6.7788759E-03
       1.6612301E-02
       1.7529653E-02
       1.5328093E-02
       1.9268616E-02
       2.0928561E-02
       2.5088244E-02
       2.8008968E-02
       2.9125222E-02
       8.3988321E-03
       3.9808015E-03
       2.2952380E-02
       1.1160798E-02
       5.8296832E-03
       1.3663644E-02
       8.0007799E-03
       5.5148351E-03
       1.4647011E-02
       1.3057027E-02
       2.4595166E-02
       2.8732028E-02
       2.8390516E-02
       3.0006126E-02
       2.8755000E-02
       2.9224101E-02
       2.6602007E-02
       1.1903321E-02
       2.6216450E-02
       2.7786942E-02
       1.7691440E-02
       2.3957638E-02
       2.3081724E-02
       1.8126892E-02
       8.9523404E-03
       5.8711741E-03
       8.4525757E-03
       6.8075106E-03
       9.0350001E-03
       1.0593624E-02
       4.0858751E-03
       2.6074469E-02
       1.2587645E-02
       5.0862689E-03
       3.2448754E-03
       4.4034434E-03
       4.2967373E-03
       5.2904843E-03
       1.6319637E-02
       7.3725435E-03
       5.4669517E-03
       1.3217960E-02
       2.4217627E-02
       4.2084611E-03
       9.5032508E-03
       1.2744385E-02
       2.4786371E-02
       1.4588321E-02
       7.8162343E-03
       1.2744885E-02
       6.3639725E-03
       2.1812324E-02
       1.4157100E-02
       8.2783823E-03
       2.0488774E-02
       1.5171611E-02
       9.4820134E-03
       8.9662793E-03
       1.1928654E-02
       1.2167449E-02
       3.8274215E-03
       5.8106961E-03
       4.7355778E-04
       9.6673108E-03
       2.4217837E-03
       6.5984590E-03
       7.5910724E-03
       1.4718381E-02
       1.1787108E-02
       5.5524074E-03
       3.6142793E-03
       3.6904858E-03
       4.9379802E-03
       5.9877912E-03
       6.1314555E-03
       8.0825917E-03
       1.9872553E-02
       2.7108993E-02
       1.5488827E-02
       1.7621593E-02
       2.0049332E-02
       2.2045374E-02
       5.2665356E-03
       8.1804973E-03
       5.0005916E-03
       2.1401391E-03
       1.8490333E-03
       2.9173652E-03
       9.5897039E-03
       9.2408380E-03
       2.1109286E-03
       1.3631880E-02
       4.1379252E-03
       1.2442336E-02
       2.9945069E-03
       6.7572959E-04
       8.3644373E-03
       1.6827627E-02
       1.5600647E-02
       1.7820126E-02
       7.9309474E-03
       1.7287768E-02
       2.2300435E-02
       2.1196363E-02
       2.6185703E-02
       2.4674066E-02
       2.1758699E-02
       2.5473202E-02
       1.2062344E-02
       5.8141257E-03
       2.1608074E-02
       8.6106574E-03
       2.0642844E-02
       5.9209926E-03
       2.8155404E-02
       2.8326878E-02
       2.9148132E-02
       2.9602995E-02
       3.0027225E-02
       2.5912241E-02
       2.4903521E-02
       2.7183656E-02
       2.4221229E-02
       2.4427595E-02
       1.9718047E-02
       2.3112818E-02
       1.5899405E-02
       2.2948832E-02
       2.1824380E-02
       5.1828601E-03
       3.4995447E-03
       2.8524057E-03
       7.1174194E-03
       1.4890405E-02
       3.2187734E-03
       4.6959255E-03
       1.6774097E-02
       1.9922357E-02
       4.9242817E-03
       1.2461080E-02
       5.1679958E-03
       1.0780182E-02
       8.4395997E-03
       1.0277227E-02
       1.0054887E-02
       4.9409828E-03
       2.7124439E-03
       1.0110296E-04
       6.6804709E-03
       1.5376614E-03
       9.4704038E-03
       5.9435163E-03
       1.5968695E-02
       4.1121717E-04
       3.3511680E-03
       8.4300164E-03
       7.5717806E-03
       1.3916934E-02
       1.0920213E-02
       2.9845950E-03
       1.8614495E-02
       1.4006306E-03
       1.1806813E-02
       2.2004964E-02
       1.2507696E-03
       6.6954752E-04
       1.3733609E-02
       1.3866065E-02
       1.4546723E-02
       1.4415774E-02
       7.3562999E-03
       1.6329249E-02
       1.5407703E-02
       1.5630621E-02
       1.7693923E-02
       1.4771474E-02
       9.7048827E-03
       1.3335946E-02
       1.3314099E-02
       4.5201681E-04
       3.4048250E-03
       3.5334011E-03
       5.1773862E-03
       2.9540909E-03
       3.0302367E-03
       1.3396868E-03
       1.3012368E-03
       8.5624176E-04
       1.5132445E-02
       1.7374814E-02
       1.5897825E-02
       1.2804098E-02
       1.7143821E-02
       1.0725183E-02
       4.4776206E-03
       8.8842248E-03
       5.1243312E-03
       3.8018291E-03
       2.5596256E-03
       3.9062357E-03
       4.8044398E-03
       2.7726813E-02
       3.0989047E-02
       2.9344705E-02
       3.0005076E-02
       3.0928183E-02
       2.9643981E-02
       3.0522488E-02
       3.1551138E-02
       3.1210183E-02
       3.2321518E-02
       3.0767641E-02
       3.1832507E-02
       3.2913904E-02
       3.2301649E-02
       3.2035751E-02
       3.2119010E-02
       3.1233842E-02
       2.9932831E-02
       2.9440203E-02
       2.9364992E-02
       2.9285463E-02
       3.0254080E-02
       3.0869551E-02
       3.0977871E-02
       2.7680055E-02
       2.4813313E-02
       2.7891156E-02
       2.6476211E-02
       2.5038850E-02
       2.9859594E-02
       3.1063093E-02
       3.0723190E-02
       3.0307580E-02
       3.0235045E-02
       3.0884329E-02
       3.2291334E-02
       3.1675529E-02
       2.9998469E-02
       3.1553522E-02
       3.2189027E-02
       3.2359591E-02
       3.1660566E-02
       3.0490202E-02
       3.0889827E-02
       3.3710781E-02
       3.1584329E-02
       3.3486838E-02
       3.2982624E-02
       3.2924273E-02
       3.2978965E-02
       3.4036077E-02
       3.3448821E-02
       3.3306255E-02
       3.2915956E-02
       3.3420119E-02
       3.4535578E-02
       3.3926511E-02
       3.4275453E-02
       3.3479148E-02
       3.5341293E-02
       3.2997063E-02
       3.4626689E-02
       3.2013450E-02
       3.4033195E-02
       3.4894671E-02
       3.5677210E-02
       3.5476605E-02
       3.6512064E-02
       3.5974079E-02
       3.5327942E-02
       3.4350259E-02
       3.2743334E-02
       3.3473744E-02
       3.6031679E-02
       3.6240592E-02
       3.6347646E-02
       3.7224817E-02
       3.6860471E-02
       3.5107204E-02
       3.6724483E-02
       3.2123289E-02
       3.3337561E-02
       3.6713967E-02
       3.6689735E-02
       3.5972231E-02
       3.6599749E-02
       3.7028866E-02
       3.1190785E-02
       3.3280930E-02
       3.7693783E-02
       3.2638461E-02
       3.4463893E-02
       3.7284867E-02
       3.7543751E-02
       3.1294224E-02
       3.3988793E-02
       3.4593484E-02
       3.7131188E-02
       3.7544036E-02
       3.7488632E-02
       3.8411303E-02
       3.8057750E-02
       3.1936726E-02
       3.1201771E-02
       3.2281596E-02
       2.9464286E-02
       3.2377575E-02
       3.0379493E-02
       3.0443839E-02
       3.0232906E-02
       3.8165572E-02
       3.9115158E-02
       2.9216383E-02
       3.7906676E-02
       3.8493432E-02
       3.7816913E-02
       3.8688338E-02
       2.8286487E-02
       2.9706598E-02
       2.8932900E-02
       2.7677300E-02
       2.8518145E-02
       2.8723250E-02
       3.8264810E-02
       3.7772007E-02
       3.8719560E-02
       3.7833809E-02
       2.7569983E-02
       2.6749225E-02
       3.7457868E-02
       3.9184088E-02
       3.8422080E-02
       3.6653883E-02
       2.7038779E-02
       3.8918605E-02
       3.7222318E-02
       3.6557184E-02
       2.8093930E-02
       3.8362468E-02
       3.9017926E-02
       3.7563586E-02
       3.9971770E-02
       3.7679694E-02
       3.9601657E-02
       3.9535435E-02
       3.9567256E-02
       3.9865314E-02
       3.9557803E-02
       3.9129790E-02
       3.9033458E-02
       4.0371904E-02
       3.9968760E-02
       4.0526770E-02
       4.0044810E-02
       4.0285246E-02
       2.7316381E-02
       3.8493695E-03
       2.4909732E-03
       1.0918486E-03
       1.8224705E-03
       1.1481008E-03
       1.6573781E-03
       1.5097859E-03
       2.1239277E-03
       2.3873697E-03
       2.0591241E-03
       2.7706944E-03
       2.2412769E-04
       3.4906874E-04
       1.2995980E-03
       1.4607685E-03
       9.3903889E-04
       5.7663601E-04
       1.5378098E-03
       3.9779275E-04
       4.3358957E-04
       1.0062084E-03
       6.6327719E-04
       3.9069607E-04
       6.0185192E-04
       2.2648084E-04
       2.5832499E-02
       1.5048559E-02
       1.3854203E-02
       1.7012789E-02
       1.5421359E-02
       1.5959617E-02
       1.7845238E-02
       2.3521694E-02
       2.0905469E-02
       2.2782867E-02
       2.4091228E-02
       2.1441544E-02
       2.2538048E-02
       1.9922098E-02
       2.2995496E-02
       2.4421397E-02
       2.3707642E-02
       2.5488470E-02
       2.6506675E-02
       2.5542107E-02
       2.3922054E-02
       2.1481707E-02
       2.2706483E-02
       2.1941399E-02
       2.2649914E-02
       2.4089050E-02
       2.3052433E-02
       2.1932709E-02
       2.3013955E-02
       2.2272098E-02
       2.3076940E-02
       2.0065458E-02
       2.2951763E-02
       2.0814732E-02
       2.4439400E-02
       2.1919386E-02
       2.3987511E-02
       2.5180386E-02
       2.1558589E-02
       2.1870429E-02
       2.3136748E-02
       2.5187324E-02
       2.6347133E-02
       2.5527606E-02
       2.4504954E-02
       2.7161031E-02
       2.5172996E-02
       2.5844885E-02
       2.5235358E-02
       2.4148778E-02
       2.6255072E-02
       2.6122365E-02
       2.7841985E-02
       2.6187713E-02
       2.7041680E-02
       2.8869718E-02
       2.8006116E-02
       2.9395905E-02
       6.8361491E-03
       8.8457200E-03
       1.0626090E-02
       1.1615586E-02
       1.1322936E-02
       1.0917973E-02
       3.5986190E-03
       9.3560787E-04
       4.0891681E-03
       1.7718213E-03
       1.2455871E-02
       1.7951312E-02
       1.1374485E-02
       9.8888009E-03
       1.5424888E-02
       1.6020477E-02
       1.3773185E-02
       1.1131620E-02
       1.1589519E-02
       1.3061975E-02
       1.3576657E-02
       1.5694549E-02
       9.4722912E-03
       7.4850360E-03
       9.6308540E-03
       9.4382189E-03
       7.1895549E-03
       8.1657659E-03
       9.5594988E-03
       4.4926754E-03
       4.3590242E-03
       6.3298309E-03
       4.4026748E-03
       5.6332404E-03
       5.7285513E-03
       1.0731346E-02
       4.4356218E-03
       6.2727605E-03
       3.5585694E-03
       1.6912262E-03
       1.7077657E-03
       1.0256959E-03
       1.8725178E-02
       1.9135269E-02
       1.8847161E-02
       5.2921197E-03
       6.2379568E-03
       7.0705998E-03
       4.4667964E-03
       4.6183246E-03
       3.0027906E-03
       2.7934049E-02
       2.7129664E-02
       2.8950536E-02
       2.7115982E-02
       2.9124521E-02
       2.5374065E-02
       3.0330017E-02
       2.4911805E-02
       3.1444165E-02
       3.0120409E-02
       2.7070404E-02
       2.8371706E-02
       1.7151682E-02
       3.0988386E-02
       2.1977894E-02
       2.2290243E-02
       1.0782614E-02
       2.0922112E-02
       3.2132394E-02
       1.4420060E-02
       1.0893248E-02
       1.4558434E-02
       1.4169316E-02
       3.0621973E-02
       3.2087192E-02
       2.4213248E-02
       2.2785515E-02
       3.1463295E-02
       3.3699156E-02
       3.3896491E-02
       3.1413943E-02
       3.3871678E-02
       3.5747033E-02
       3.5184099E-02
       3.8099568E-02
       3.6938186E-02
       3.8817527E-02
       3.8290305E-02
       3.8833887E-02
       3.8202174E-02
       3.8856722E-02
       3.9901754E-02
       3.9379055E-02
       3.9411077E-02
       3.9479354E-02
       3.6634300E-02
       3.7287411E-02
       3.5758604E-02
       3.7047011E-02
       3.9418802E-02
       3.9588106E-02
       3.8890857E-02
       3.8665229E-02
       3.8994242E-02
       4.0213477E-02
       4.1249848E-02
       2.2112581E-03
       4.4275651E-04
       8.0153614E-04
       3.2431264E-04
       1.7904556E-02
       1.9128519E-02
       1.6867029E-02
       1.8514638E-02
       1.8514541E-02
       2.5522149E-02
       2.8051464E-02
       2.7532627E-02
       1.9971820E-02
       1.8662157E-02
       1.8938097E-02
       2.4868432E-02
       2.3988150E-02
       2.1544325E-02
       2.7698344E-02
       3.0454476E-02
       1.4695183E-03
       7.5917063E-04
       2.3172180E-03
       1.0750338E-03
       1.4251327E-03
       3.9560789E-03
       3.4769433E-04
       1.3079558E-03
       1.3429020E-04
       2.6869872E-04
       3.9046104E-04
       5.8987286E-04
       2.2708749E-04
       6.1327091E-04
       1.6294837E-04
       6.0770294E-03
       7.7525662E-03
       1.9063701E-03
       2.6738546E-03
       1.5947467E-02
       1.6908810E-02
       1.8866610E-02
       1.9101521E-02
       1.9651267E-02
       2.0832601E-02
       2.1253734E-02
       9.6171659E-03
       9.0236294E-03
       1.3047884E-02
       1.4130073E-02
       4.4726684E-03
       1.1095193E-02
       1.2307175E-02
       2.6247549E-03
       1.1351956E-02
       1.4051181E-02
       1.5736887E-02
       1.5716883E-02
       1.6919488E-02
       1.5383370E-02
       6.9305417E-04
       1.7319728E-02
       1.3426021E-02
       1.6913237E-02
       1.2333932E-02
       1.2624478E-02
       1.1919769E-02
       5.3205114E-03
       8.7952039E-03
       6.7043201E-03
       7.9591708E-03
       6.4326238E-03
       2.8147932E-03
       1.1687721E-03
       1.6428086E-02
       1.5528717E-02
       1.7896531E-02
       7.3817655E-03
       7.5818806E-03
       6.3977811E-03
       9.6116071E-03
       8.3010152E-03
       7.3545103E-03
       1.1782064E-02
       3.5158774E-03
       1.0244633E-03
       7.2652710E-04
       2.2290325E-02
       1.7588487E-02
       1.1699308E-02
       1.3944964E-02
       1.1287826E-02
       1.6208653E-02
       1.8722260E-02
       1.7702352E-02
       3.2952348E-02
       3.5056673E-02
       3.5157227E-02
       3.5362959E-02
       3.5350036E-02
       3.5829780E-02
       3.4597130E-02
       3.4394307E-02
       3.5079309E-02
       3.4371611E-02
       3.8122038E-02
       3.8074333E-02
       4.2950787E-02
       3.7888670E-02
       3.6420676E-02
       4.0559347E-02
       3.9831244E-02
       4.0616253E-02
       3.9846206E-02
       3.8534808E-02
       4.1644827E-02
       3.3689988E-02
       4.1265738E-02
       4.2351667E-02
       3.6642093E-02
       3.2746834E-02
       4.2355027E-02
       4.2014927E-02
       4.0228268E-02
       4.0523365E-02
       4.0739038E-02
       3.3908882E-02
       4.1570342E-02
       3.6812344E-02
       4.1141830E-02
       3.5513707E-02
       4.1998838E-02
       4.0962162E-02
       4.1572808E-02
       4.1248807E-02
       4.1728912E-02
       4.0345215E-02
       4.2271204E-02
       3.8467174E-02
       4.1991796E-02
       3.8040512E-02
       3.7260753E-02
       4.1772721E-02
       4.2305841E-02
       3.8667889E-02
       3.7205103E-02
       1.8332255E-02
       4.2726702E-02
       1.5969094E-02
       4.3099977E-02
       3.8925275E-02
       4.2882076E-02
       3.5324369E-02
       3.4213671E-02
       4.2951110E-02
       4.3333013E-02
       4.3320446E-02
       4.3885659E-02
       4.2673055E-02
       4.2563741E-02
       3.8056074E-02
       3.6227030E-02
       3.7685009E-02
       3.5724879E-02
       3.5113166E-02
       4.1011347E-02
       3.6573503E-02
       3.7664182E-02
       3.4716830E-02
       3.5364780E-02
       3.6778734E-02
       4.4495665E-02
       3.9179355E-02
       4.1804733E-02
       3.6305653E-02
       4.1548244E-02
       3.6776333E-02
       3.6157292E-02
       3.5131384E-02
       3.4284606E-02
       3.5649213E-02
       3.6135928E-02
       3.6282059E-02
       3.5909294E-02
       3.5411273E-02
       3.5847835E-02
       3.4907451E-02
       3.5784820E-02
       3.4178652E-02
       3.3871987E-02
       3.4528519E-02
       3.3816758E-02
       3.4542582E-02
       3.5185041E-02
       3.4711816E-02
       3.3944873E-02
       3.3208058E-02
       3.3009653E-02
       3.2866974E-02
       3.1804466E-02
       3.3537132E-02
       3.3856282E-02
       3.7296989E-02
       3.9369378E-02
       3.8470730E-02
       3.8786774E-02
       3.9966809E-02
       4.0907337E-02
       4.0647774E-02
       4.0901139E-02
       4.0669896E-02
       4.0221725E-02
       4.1037945E-02
       4.0538397E-02
       4.1576919E-02
       4.0548274E-02
       4.1477090E-02
       4.1162286E-02
       4.1886175E-02
       4.0880215E-02
       4.0938184E-02
       4.0904256E-02
       4.0032078E-02
       4.1318161E-02
       4.0519867E-02
       4.0266256E-02
       4.1138745E-02
       4.1202572E-02