# vtk DataFile Version 3.0
# Solution du M1 TR
ASCII
DATASET UNSTRUCTURED_GRID
POINTS   3280  float
0.0000000E+00  0.0000000E+00  0.1927055E-01
0.2000000E+01  0.0000000E+00  0.1960154E+01
0.2000000E+01  0.1000000E+01  0.1960209E+01
0.0000000E+00  0.1000000E+01  0.1932503E-01
0.1000000E+01  0.0000000E+00  0.9939039E+00
0.1000000E+01  0.1000000E+01  0.9935400E+00
0.1500000E+01  0.5000000E+00  0.1495662E+01
0.1500000E+01  0.0000000E+00  0.1473817E+01
0.1723284E+01  0.3570951E+00  0.1706526E+01
0.1500000E+01  0.2500000E+00  0.1494196E+01
0.1515103E+01  0.2763186E+00  0.1509063E+01
0.1594866E+01  0.2826386E+00  0.1585011E+01
0.1562500E+01  0.1875000E+00  0.1552669E+01
0.1534357E+01  0.1819434E+00  0.1525296E+01
0.1561083E+01  0.3343258E+00  0.1553257E+01
0.1750000E+01  0.0000000E+00  0.1715687E+01
0.1503267E+01  0.1622339E+00  0.1494706E+01
0.1514910E+01  0.2261192E+00  0.1508038E+01
0.1610795E+01  0.1290247E+00  0.1594499E+01
0.1539062E+01  0.1536458E+00  0.1528124E+01
0.1510772E+01  0.1982718E+00  0.1503267E+01
0.1541862E+01  0.2179813E+00  0.1533634E+01
0.1475030E+01  0.2178147E+00  0.1469841E+01
0.1539206E+01  0.2578835E+00  0.1531712E+01
0.1521085E+01  0.2465697E+00  0.1514198E+01
0.1496499E+01  0.2146241E+00  0.1490141E+01
0.1481433E+01  0.1870688E+00  0.1474698E+01
0.1586261E+01  0.1960616E+00  0.1575255E+01
0.1460896E+01  0.2899333E+00  0.1457554E+01
0.1542195E+01  0.2867649E+00  0.1534890E+01
0.1486080E+01  0.2754813E+00  0.1481345E+01
0.1536278E+01  0.3247610E+00  0.1529690E+01
0.1510131E+01  0.3295675E+00  0.1504893E+01
0.1455545E+01  0.2514402E+00  0.1451939E+01
0.1610995E+01  0.1909452E+00  0.1598993E+01
0.1564462E+01  0.2395252E+00  0.1555597E+01
0.1571524E+01  0.3026484E+00  0.1562901E+01
0.1613657E+01  0.2555806E+00  0.1602751E+01
0.1633998E+01  0.2714643E+00  0.1622047E+01
0.1534973E+01  0.3650914E+00  0.1528315E+01
0.1583157E+01  0.2286349E+00  0.1573074E+01
0.1586501E+01  0.1581416E+00  0.1573975E+01
0.1651985E+01  0.2274641E+00  0.1638881E+01
0.1619170E+01  0.2936434E+00  0.1608055E+01
0.1678889E+01  0.2641389E+00  0.1664596E+01
0.1642286E+01  0.2930521E+00  0.1629911E+01
0.1526415E+01  0.3446283E+00  0.1520280E+01
0.1662420E+01  0.3044259E+00  0.1649056E+01
0.1636786E+01  0.2469276E+00  0.1624672E+01
0.1588953E+01  0.3366240E+00  0.1579706E+01
0.1616427E+01  0.3314099E+00  0.1605692E+01
0.1598305E+01  0.3102698E+00  0.1588364E+01
0.1655410E+01  0.2614708E+00  0.1642300E+01
0.1487553E+01  0.3072167E+00  0.1483130E+01
0.1520126E+01  0.3036443E+00  0.1514133E+01
0.1477894E+01  0.2544664E+00  0.1473374E+01
0.1567847E+01  0.2133479E+00  0.1558142E+01
0.1663947E+01  0.3299725E+00  0.1650750E+01
0.1567022E+01  0.2696000E+00  0.1558461E+01
0.1678598E+01  0.3509559E+00  0.1664442E+01
0.1611933E+01  0.3827205E+00  0.1601302E+01
0.1640491E+01  0.3197373E+00  0.1628445E+01
0.1588015E+01  0.2526666E+00  0.1578233E+01
0.1708471E+01  0.3144917E+00  0.1692561E+01
0.1606944E+01  0.3564315E+00  0.1596674E+01
0.1604614E+01  0.2314093E+00  0.1593665E+01
0.1643491E+01  0.3631133E+00  0.1631302E+01
0.2000000E+01  0.5000000E+00  0.1960440E+01
0.1494727E+01  0.3621796E+00  0.1490099E+01
0.1701807E+01  0.3477237E+00  0.1686234E+01
0.1572156E+01  0.3701847E+00  0.1563743E+01
0.1688392E+01  0.3285111E+00  0.1673765E+01
0.1695932E+01  0.3904821E+00  0.1680703E+01
0.1636337E+01  0.3418163E+00  0.1624646E+01
0.1505941E+01  0.9448485E-01  0.1486691E+01
0.1423727E+01  0.1910920E+00  0.1419595E+01
0.1481447E+01  0.3359634E+00  0.1477587E+01
0.1441613E+01  0.3726133E+00  0.1439774E+01
0.1466699E+01  0.3599060E+00  0.1463580E+01
0.1476682E+01  0.4107296E+00  0.1473158E+01
0.1434448E+01  0.3273535E+00  0.1432876E+01
0.1464523E+01  0.3867258E+00  0.1461666E+01
0.1456903E+01  0.3373583E+00  0.1454325E+01
0.1454188E+01  0.3132491E+00  0.1451414E+01
0.1424069E+01  0.2919612E+00  0.1422367E+01
0.1490969E+01  0.3884111E+00  0.1486706E+01
0.1428051E+01  0.4202828E+00  0.1427114E+01
0.1513790E+01  0.3782958E+00  0.1508244E+01
0.1547789E+01  0.4092466E+00  0.1540676E+01
0.1535154E+01  0.3889763E+00  0.1528568E+01
0.1512699E+01  0.4170463E+00  0.1507457E+01
0.1441554E+01  0.3983607E+00  0.1439894E+01
0.1395941E+01  0.3853832E+00  0.1396637E+01
0.1420578E+01  0.3854393E+00  0.1419906E+01
0.1408336E+01  0.3518173E+00  0.1408147E+01
0.1549967E+01  0.3074339E+00  0.1542571E+01
0.1651639E+01  0.4114272E+00  0.1639099E+01
0.1668616E+01  0.3788978E+00  0.1655011E+01
0.1674624E+01  0.4027285E+00  0.1660852E+01
0.1706988E+01  0.4343785E+00  0.1691470E+01
0.1673984E+01  0.4357547E+00  0.1660251E+01
0.1695270E+01  0.4139894E+00  0.1680363E+01
0.1737273E+01  0.4034108E+00  0.1719622E+01
0.1645630E+01  0.3875965E+00  0.1633442E+01
0.1625874E+01  0.4052508E+00  0.1614673E+01
0.1627808E+01  0.4540126E+00  0.1616840E+01
0.1587158E+01  0.4136289E+00  0.1577985E+01
0.1633718E+01  0.4293591E+00  0.1622352E+01
0.1651607E+01  0.4466828E+00  0.1639282E+01
0.1605650E+01  0.4356658E+00  0.1595678E+01
0.1682168E+01  0.4808869E+00  0.1668156E+01
0.1671711E+01  0.4594749E+00  0.1658405E+01
0.1698428E+01  0.4596870E+00  0.1683651E+01
0.1646221E+01  0.4851828E+00  0.1634218E+01
0.1607747E+01  0.4151289E+00  0.1597523E+01
0.1584205E+01  0.4841185E+00  0.1575380E+01
0.1747573E+01  0.4622079E+00  0.1729737E+01
0.1568396E+01  0.4481495E+00  0.1560285E+01
0.1601760E+01  0.4629165E+00  0.1592198E+01
0.1723356E+01  0.4540167E+00  0.1706998E+01
0.1732897E+01  0.4294241E+00  0.1715618E+01
0.1722218E+01  0.4972746E+00  0.1706168E+01
0.1715121E+01  0.4754441E+00  0.1699399E+01
0.1584567E+01  0.4345797E+00  0.1575698E+01
0.1563465E+01  0.4258523E+00  0.1555711E+01
0.1534166E+01  0.4440258E+00  0.1527798E+01
0.1615090E+01  0.4918227E+00  0.1604793E+01
0.1717469E+01  0.4134541E+00  0.1701154E+01
0.1718488E+01  0.3909170E+00  0.1701845E+01
0.1741353E+01  0.3769080E+00  0.1723323E+01
0.1781199E+01  0.4241746E+00  0.1760424E+01
0.2000000E+01  0.2500000E+00  0.1960318E+01
0.1756308E+01  0.4199875E+00  0.1737516E+01
0.1762447E+01  0.3937207E+00  0.1743064E+01
0.1765097E+01  0.4438197E+00  0.1745812E+01
0.1807974E+01  0.4625425E+00  0.1784181E+01
0.1789176E+01  0.4471344E+00  0.1767706E+01
0.1514158E+01  0.1287364E+00  0.1501874E+01
0.1777674E+01  0.4803377E+00  0.1757684E+01
0.1811145E+01  0.4395021E+00  0.1787701E+01
0.1850404E+01  0.4566449E+00  0.1821466E+01
0.1748483E+01  0.3522599E+00  0.1729925E+01
0.1731235E+01  0.3304535E+00  0.1713946E+01
0.1777870E+01  0.3654441E+00  0.1757429E+01
0.1748149E+01  0.2821176E+00  0.1729711E+01
0.1732875E+01  0.3039003E+00  0.1715454E+01
0.1708314E+01  0.2807181E+00  0.1692509E+01
0.1767650E+01  0.3193756E+00  0.1747900E+01
0.1372661E+01  0.1704076E+00  0.1369381E+01
0.1411157E+01  0.2494459E+00  0.1409629E+01
0.1448000E+01  0.2246098E+00  0.1444156E+01
0.1360382E+01  0.2278583E+00  0.1360630E+01
0.1433680E+01  0.2431125E+00  0.1431036E+01
0.1388814E+01  0.2314916E+00  0.1387820E+01
0.1314549E+01  0.2124991E+00  0.1316654E+01
0.1404157E+01  0.2007613E+00  0.1401636E+01
0.1415035E+01  0.1072182E+00  0.1403854E+01
0.1520299E+01  0.1091515E+00  0.1504693E+01
0.1459010E+01  0.1690672E+00  0.1452402E+01
0.1436337E+01  0.2690050E+00  0.1433861E+01
0.1443480E+01  0.1263360E+00  0.1434098E+01
0.1625000E+01  0.0000000E+00  0.1594407E+01
0.1414954E+01  0.2197329E+00  0.1412410E+01
0.1335299E+01  0.2266424E+00  0.1336651E+01
0.1396801E+01  0.1612344E+00  0.1391774E+01
0.1792033E+01  0.3934232E+00  0.1770445E+01
0.1541310E+01  0.1264947E+00  0.1527860E+01
0.1483859E+01  0.1256971E+00  0.1471833E+01
0.1500341E+01  0.1139400E+00  0.1486338E+01
0.1498380E+01  0.1421255E+00  0.1487659E+01
0.1478242E+01  0.1468909E+00  0.1469183E+01
0.1453147E+01  0.1972183E+00  0.1448152E+01
0.1348833E+01  0.2067866E+00  0.1349036E+01
0.1368157E+01  0.2800764E+00  0.1369064E+01
0.1250000E+01  0.0000000E+00  0.1233067E+01
0.1496272E+01  0.2780308E-01  0.1471217E+01
0.1430228E+01  0.1622338E+00  0.1423859E+01
0.1544491E+01  0.1012427E+00  0.1526355E+01
0.1505524E+01  0.5428530E-01  0.1482477E+01
0.1576405E+01  0.1180891E+00  0.1560037E+01
0.1526885E+01  0.8834234E-01  0.1505988E+01
0.1558557E+01  0.6358195E-01  0.1534804E+01
0.1372206E+01  0.9428859E-01  0.1359258E+01
0.1414069E+01  0.8636887E-01  0.1398880E+01
0.1351230E+01  0.1581055E+00  0.1348151E+01
0.1371634E+01  0.2528708E+00  0.1372032E+01
0.1392978E+01  0.2694234E+00  0.1392547E+01
0.1321668E+01  0.2603105E+00  0.1324677E+01
0.1392566E+01  0.3027057E+00  0.1392615E+01
0.1345601E+01  0.2495441E+00  0.1347153E+01
0.1349996E+01  0.1827855E+00  0.1348820E+01
0.1475238E+01  0.9618066E-01  0.1458330E+01
0.1487372E+01  0.4556180E+00  0.1483495E+01
0.1432024E+01  0.3509343E+00  0.1430570E+01
0.1619231E+01  0.5383449E+00  0.1608619E+01
0.1532505E+01  0.4233173E+00  0.1526231E+01
0.1547332E+01  0.4788657E+00  0.1540388E+01
0.1627786E+01  0.4750493E+00  0.1616653E+01
0.1750658E+01  0.4911384E+00  0.1732835E+01
0.1783313E+01  0.5336292E+00  0.1762645E+01
0.1744147E+01  0.5299352E+00  0.1726640E+01
0.1772978E+01  0.5077787E+00  0.1753277E+01
0.1739682E+01  0.5092411E+00  0.1722459E+01
0.1715917E+01  0.5251974E+00  0.1700192E+01
0.1809547E+01  0.4999146E+00  0.1785439E+01
0.1486188E+01  0.5335558E+00  0.1482152E+01
0.1695320E+01  0.5058771E+00  0.1680875E+01
0.1793562E+01  0.5145404E+00  0.1771537E+01
0.1827482E+01  0.5355643E+00  0.1801099E+01
0.1805457E+01  0.5332234E+00  0.1782146E+01
0.1812320E+01  0.5734372E+00  0.1788645E+01
0.1794794E+01  0.5557356E+00  0.1773057E+01
0.1637325E+01  0.5533192E+00  0.1625885E+01
0.1761146E+01  0.5591762E+00  0.1742483E+01
0.1789115E+01  0.5788851E+00  0.1767772E+01
0.1693317E+01  0.6123782E+00  0.1678963E+01
0.1522396E+01  0.5359490E+00  0.1516592E+01
0.1814654E+01  0.6254783E+00  0.1790270E+01
0.1726166E+01  0.5505978E+00  0.1709778E+01
0.1691322E+01  0.5307786E+00  0.1677193E+01
0.1516987E+01  0.5143680E+00  0.1511606E+01
0.1661909E+01  0.5147686E+00  0.1649180E+01
0.1761865E+01  0.6508066E+00  0.1742716E+01
0.1692174E+01  0.5698207E+00  0.1678003E+01
0.1780214E+01  0.6037461E+00  0.1759956E+01
[...]
POINT_DATA    3280
SCALARS hauteur float
LOOKUP_TABLE DEFAULT
       1.9270545E-02
       2.0685804E-05
       7.6092972E-05
       1.9325035E-02
       1.3837351E-02
       1.3473393E-02
       2.5561814E-02
       3.7168805E-03
       1.7592617E-02
       2.4096335E-02
       2.4160938E-02
       2.1936917E-02
       2.1315202E-02
       2.1523338E-02
       2.3292027E-02
       5.7069530E-04
       2.1404375E-02
       2.3325562E-02
       1.5812169E-02
       1.9739824E-02
       2.2609770E-02
       2.2507189E-02
       2.4213731E-02
       2.3188175E-02
       2.3433067E-02
       2.3471944E-02
       2.2795093E-02
       2.0613553E-02
       2.5778498E-02
       2.3435925E-02
       2.4887569E-02
       2.4035110E-02
       2.4864926E-02
       2.5408432E-02
       2.0110507E-02
       2.2319231E-02
       2.2703399E-02
       2.1259575E-02
       2.0619646E-02
       2.3938577E-02
       2.1474686E-02
       1.9097950E-02
       1.9825427E-02
       2.1160866E-02
       1.9172832E-02
       2.0360565E-02
       2.4292392E-02
       1.9774126E-02
       2.0512104E-02
       2.2426751E-02
       2.1485897E-02
       2.1919382E-02
       1.9887028E-02
       2.5229019E-02
       2.4307405E-02
       2.4939587E-02
       2.1547710E-02
       1.9971079E-02
       2.2674246E-02
       1.9304034E-02
       2.1500494E-02
       2.0655089E-02
       2.1872466E-02
       1.8146160E-02
       2.1762232E-02
       2.1036016E-02
       2.0571020E-02
       3.0733049E-04
       2.5167011E-02
       1.8350280E-02
       2.2925337E-02
       1.9028672E-02
       1.8575870E-02
       2.0926670E-02
       1.0768731E-02
       2.4246805E-02
       2.5670083E-02
       2.6897390E-02
       2.6118054E-02
       2.5910907E-02
       2.7022300E-02
       2.6335381E-02
       2.6463062E-02
       2.6212863E-02
       2.6684289E-02
       2.5457487E-02
       2.7529519E-02
       2.4628907E-02
       2.3739511E-02
       2.4014242E-02
       2.4911632E-02
       2.7074930E-02
       2.8522046E-02
       2.7644805E-02
       2.7883904E-02
       2.3500516E-02
       2.0383435E-02
       1.9656547E-02
       1.9608110E-02
       1.8507925E-02
       1.9634633E-02
       1.8885847E-02
       1.6978795E-02
       2.0614596E-02
       2.1207588E-02
       2.1479962E-02
       2.2463949E-02
       2.1199854E-02
       2.0596892E-02
       2.2033750E-02
       1.9518921E-02
       2.0016527E-02
       1.9078958E-02
       2.0811899E-02
       2.1823854E-02
       2.2753762E-02
       1.6999163E-02
       2.3151973E-02
       2.2366524E-02
       1.7994459E-02
       1.7263512E-02
       1.8279361E-02
       1.8466060E-02
       2.2716408E-02
       2.3411385E-02
       2.4213541E-02
       2.1896857E-02
       1.7920556E-02
       1.7611893E-02
       1.6680730E-02
       1.4729765E-02
       1.8464652E-04
       1.6216840E-02
       1.5748086E-02
       1.5899842E-02
       1.2246816E-02
       1.4194884E-02
       1.7897790E-02
       1.5445567E-02
       1.2658354E-02
       7.9476090E-03
       1.6295233E-02
       1.7219866E-02
       1.4998233E-02
       1.6408499E-02
       1.7120694E-02
       1.8247794E-02
       1.5485906E-02
       2.4081453E-02
       2.6601881E-02
       2.5018917E-02
       2.7365070E-02
       2.5934403E-02
       2.6690363E-02
       2.8308883E-02
       2.5468009E-02
       1.7025325E-02
       1.4698916E-02
       2.2475711E-02
       2.6155794E-02
       1.9391883E-02
       1.7987149E-03
       2.5660848E-02
       2.7969139E-02
       2.2815188E-02
       1.4133415E-02
       1.7273634E-02
       1.7552077E-02
       1.5904532E-02
       1.9146754E-02
       2.0407732E-02
       2.3970908E-02
       2.7090561E-02
       2.8179295E-02
       7.9838848E-03
       4.7715437E-03
       2.2139934E-02
       1.2651547E-02
       6.9632446E-03
       1.5055663E-02
       9.5393426E-03
       7.3146307E-03
       1.4404500E-02
       1.2998501E-02
       2.3855361E-02
       2.7739547E-02
       2.7335837E-02
       2.9354517E-02
       2.7807741E-02
       2.8374362E-02
       2.5733981E-02
       1.2498621E-02
       2.5771242E-02
       2.7090692E-02
       2.1664653E-02
       2.4273817E-02
       2.3899159E-02
       2.1313786E-02
       1.7073372E-02
       1.4879918E-02
       1.7260168E-02
       1.5640798E-02
       1.7455191E-02
       1.8479052E-02
       1.1962404E-02
       2.5588980E-02
       1.9348640E-02
       1.3727419E-02
       1.0044920E-02
       1.2677125E-02
       1.2450945E-02
       1.4039995E-02
       2.1197721E-02
       1.6442682E-02
       1.4320074E-02
       1.9400177E-02
       2.4542641E-02
       1.1788663E-02
       1.8020198E-02
       1.9585045E-02
       2.4857669E-02
       2.0398650E-02
       1.5970340E-02
       1.9560129E-02
       1.5227834E-02
       2.3294136E-02
       2.0296278E-02
       1.6949054E-02
       2.2731980E-02
       1.9408157E-02
       1.7560534E-02
       1.6970478E-02
       1.7867868E-02
       1.7464061E-02
       1.0295352E-02
       1.1423279E-02
       2.5786208E-04
       1.5268648E-02
       6.7893204E-03
       1.4513597E-02
       1.6251410E-02
       1.8992202E-02
       1.7272072E-02
       1.3048949E-02
       1.0025651E-02
       1.0264953E-02
       1.2109479E-02
       1.3157241E-02
       1.3228603E-02
       1.4988521E-02
       1.9744194E-02
       2.6080065E-02
       1.6865199E-02
       1.8246778E-02
       2.0172645E-02
       2.1409567E-02
       7.5881122E-03
       1.0138157E-02
       6.9421158E-03
       3.0281299E-03
       3.3063787E-03
       4.2441463E-03
       1.1800245E-02
       1.2270272E-02
       4.1455013E-03
       1.6474009E-02
       6.7981304E-03
       1.5231149E-02
       4.9776272E-03
       1.2869344E-03
       1.2044094E-02
       1.8638467E-02
       1.7541613E-02
       1.8976181E-02
       8.8045635E-03
       1.7213559E-02
       2.1742290E-02
       2.0588763E-02
       2.5660383E-02
       2.4066154E-02
       2.1441633E-02
       2.4446528E-02
       1.2151786E-02
       5.7341743E-03
       2.0958470E-02
       9.1050898E-03
       2.0113872E-02
       6.7502982E-03
       2.7156435E-02
       2.7444283E-02
       2.8304954E-02
       2.8844421E-02
       2.9286261E-02
       2.5566997E-02
       2.4876249E-02
       2.6550322E-02
       2.4513040E-02
       2.4618170E-02
       2.2406507E-02
       2.3937970E-02
       2.1012455E-02
       2.3779187E-02
       2.3245856E-02
       1.3477905E-02
       1.0644561E-02
       8.9208041E-03
       1.6222737E-02
       2.0233361E-02
       9.1896078E-03
       1.2927056E-02
       2.1189813E-02
       2.2548643E-02
       1.1281229E-02
       1.8566939E-02
       1.2398922E-02
       1.7992400E-02
       1.5900111E-02
       1.6740912E-02
       1.7214209E-02
       1.2616719E-02
       7.1037881E-03
       1.7225069E-04
       1.3931692E-02
       4.0750456E-03
       1.5710131E-02
       1.4423624E-02
       2.0264128E-02
       4.6333839E-04
       1.0098360E-02
       1.5340004E-02
       1.3965636E-02
       1.8985660E-02
       1.8555205E-02
       3.4099741E-03
       2.1941619E-02
       3.6106447E-03
       1.6588919E-02
       2.3450976E-02
       3.1175341E-03
       1.3330179E-03
       1.8520283E-02
       1.8006307E-02
       1.9547445E-02
       1.9700805E-02
       1.2626035E-02
       1.9407120E-02
       1.8245495E-02
       1.9307387E-02
       2.0406742E-02
       1.8143716E-02
       1.4909385E-02
       1.6867605E-02
       1.8111522E-02
       9.6447132E-04
       1.0140377E-02
       9.6799906E-03
       1.2418519E-02
       4.6924884E-03
       4.1118383E-03
       2.0494079E-03
       2.3168431E-03
       1.6010514E-03
       1.8363296E-02
       1.9471335E-02
       1.5806180E-02
       1.3067707E-02
       1.6855939E-02
       1.0719710E-02
       4.7471680E-03
       9.1257191E-03
       5.1842128E-03
       4.2807731E-03
       3.3922059E-03
       4.9435819E-03
       6.2297607E-03
       2.6655290E-02
       3.0322760E-02
       2.8454263E-02
       2.9245862E-02
       3.0420783E-02
       2.8820894E-02
       2.9941388E-02
       3.1446152E-02
       3.0860554E-02
       3.2318327E-02
       3.0418093E-02
       3.1702507E-02
       3.3412623E-02
       3.2436156E-02
       3.2407206E-02
       3.2339879E-02
       3.1201834E-02
       2.9427174E-02
       2.8728186E-02
       2.9257079E-02
       2.8869575E-02
       3.0004253E-02
       3.1253033E-02
       3.1080356E-02
       2.7314792E-02
       2.4823902E-02
       2.7289436E-02
       2.5750561E-02
       2.4770355E-02
       2.9100770E-02
       3.0538685E-02
       3.0137160E-02
       2.9620524E-02
       2.9531939E-02
       3.0287558E-02
       3.1949529E-02
       3.1289936E-02
       2.9144577E-02
       3.0988476E-02
       3.1621062E-02
       3.2228990E-02
       3.1345453E-02
       2.9742216E-02
       3.0061838E-02
       3.3988398E-02
       3.1292498E-02
       3.3945797E-02
       3.2991622E-02
       3.3085397E-02
       3.3331040E-02
       3.5112257E-02
       3.4224227E-02
       3.4230908E-02
       3.2715814E-02
       3.3733766E-02
       3.5559880E-02
       3.4562299E-02
       3.5305112E-02
       3.2930946E-02
       3.7279179E-02
       3.2551246E-02
       3.6127838E-02
       3.0933038E-02
       3.4209054E-02
       3.6310694E-02
       3.7339876E-02
       3.7237073E-02
       3.9124065E-02
       3.8304635E-02
       3.7855503E-02
       3.5988407E-02
       3.1953255E-02
       3.3376849E-02
       3.8139541E-02
       3.8100949E-02
       3.8514387E-02
       4.0221013E-02
       3.9617879E-02
       3.7199349E-02
       4.0018769E-02
       3.1305015E-02
       3.2426647E-02
       3.9082831E-02
       3.8684811E-02
       3.8610188E-02
       3.9556262E-02
       4.0224737E-02
       3.0053438E-02
       3.2504279E-02
       4.1462870E-02
       3.1554023E-02
       3.4283054E-02
       4.0624096E-02
       4.1405557E-02
       2.9874217E-02
       3.3591475E-02
       3.4720642E-02
       4.0707290E-02
       4.1995242E-02
       4.1643107E-02
       4.3413376E-02
       4.2996432E-02
       3.0654401E-02
       2.9932758E-02
       3.0944605E-02
       2.8256513E-02
       3.1107420E-02
       2.9123870E-02
       2.9403559E-02
       2.8820832E-02
       4.2624296E-02
       4.5300416E-02
       2.8305125E-02
       4.2375205E-02
       4.3102793E-02
       4.3214846E-02
       4.4257478E-02
       2.7436703E-02
       2.8598973E-02
       2.7937446E-02
       2.6838431E-02
       2.7494949E-02
       2.7444543E-02
       4.2648693E-02
       4.1433359E-02
       4.3768369E-02
       4.2832893E-02
       2.6828686E-02
       2.6184764E-02
       4.0574869E-02
       4.5185998E-02
       4.4100052E-02
       4.0927578E-02
       2.6296854E-02
       4.5602672E-02
       4.1634141E-02
       4.0316580E-02
       2.7044452E-02
       4.4415448E-02
       4.5452090E-02
       4.3645957E-02
       4.7190435E-02
       4.3404677E-02
       4.6692154E-02
       4.6288362E-02
       4.6174007E-02
       4.6482428E-02
       4.5946177E-02
       4.4821269E-02
       4.4401914E-02
       4.7826731E-02
       4.7052418E-02
       4.8295188E-02
       4.7001549E-02
       4.7465578E-02
       2.6671290E-02
       1.1561820E-02
       7.8943700E-03
       2.8919662E-03
       5.6134730E-03
       3.2343564E-03
       4.8662252E-03
       4.5265904E-03
       6.5043022E-03
       7.1653269E-03
       6.1522111E-03
       8.1035302E-03
       1.2077961E-04
       4.4361887E-04
       3.7616151E-03
       4.3049870E-03
       2.5456896E-03
       1.2111533E-03
       4.5627758E-03
       7.2546671E-04
       6.8240023E-04
       2.8371974E-03
       1.5606289E-03
       8.2136320E-04
       1.4864638E-03
       1.5733895E-04
       2.5362614E-02
       2.0602576E-02
       1.9905570E-02
       2.1361072E-02
       2.0373986E-02
       2.0775768E-02
       2.1452288E-02
       2.4191247E-02
       2.2946576E-02
       2.3626212E-02
       2.4290622E-02
       2.3075627E-02
       2.3583147E-02
       2.2371600E-02
       2.3706455E-02
       2.4465741E-02
       2.4146171E-02
       2.5147784E-02
       2.5832547E-02
       2.5194256E-02
       2.4216107E-02
       2.2973319E-02
       2.3611071E-02
       2.3046406E-02
       2.3569704E-02
       2.4406424E-02
       2.3760639E-02
       2.2923232E-02
       2.3690002E-02
       2.3222315E-02
       2.3535355E-02
       2.1874435E-02
       2.3551243E-02
       2.1785950E-02
       2.4681279E-02
       2.2733878E-02
       2.4337013E-02
       2.5147350E-02
       2.2032983E-02
       2.2474816E-02
       2.3472544E-02
       2.5036737E-02
       2.6175428E-02
       2.5484280E-02
       2.4715053E-02
       2.6557604E-02
       2.5282600E-02
       2.5851902E-02
       2.5313680E-02
       2.4342584E-02
       2.5964429E-02
       2.5726207E-02
       2.6710614E-02
       2.5657627E-02
       2.6276438E-02
       2.7794885E-02
       2.7000836E-02
       2.7970823E-02
       1.5870379E-02
       1.7525858E-02
       1.8581725E-02
       1.9084323E-02
       1.8481830E-02
       1.6516562E-02
       9.4863263E-03
       2.3834556E-03
       9.3438587E-03
       5.1336266E-03
       1.8863392E-02
       2.0881487E-02
       1.5844911E-02
       1.4754985E-02
       1.9020909E-02
       1.9078125E-02
       1.8041449E-02
       1.6338013E-02
       1.6900551E-02
       1.7348965E-02
       1.7042296E-02
       1.8206776E-02
       1.4105739E-02
       1.4392697E-02
       1.5993481E-02
       1.5598015E-02
       1.3202062E-02
       1.4507726E-02
       1.5131375E-02
       1.1200472E-02
       9.4082295E-03
       1.3138313E-02
       1.1604271E-02
       1.2954179E-02
       1.3333202E-02
       1.6829150E-02
       1.1215512E-02
       1.3420938E-02
       4.9682508E-03
       2.6373186E-03
       3.2416831E-03
       2.0658790E-03
       2.0373614E-02
       1.8716261E-02
       1.8480893E-02
       5.5893659E-03
       6.7429244E-03
       7.2629311E-03
       4.9422569E-03
       5.2795596E-03
       3.8100847E-03
       2.7138267E-02
       2.7035844E-02
       2.9455667E-02
       2.7323062E-02
       2.9289014E-02
       2.6047379E-02
       3.0877788E-02
       2.5215060E-02
       3.2378498E-02
       3.1015609E-02
       2.7573324E-02
       2.9393230E-02
       1.7522264E-02
       3.2540980E-02
       2.2118523E-02
       2.2696206E-02
       1.1027985E-02
       2.1560543E-02
       3.2979738E-02
       1.4762888E-02
       1.0707390E-02
       1.4649665E-02
       1.4152230E-02
       3.1830382E-02
       3.3576020E-02
       2.3775852E-02
       2.2313975E-02
       3.0723390E-02
       3.4405466E-02
       3.5107358E-02
       3.0447697E-02
       3.3680266E-02
       3.6684970E-02
       3.6132374E-02
       4.2024566E-02
       3.9389752E-02
       4.4247575E-02
       4.4648876E-02
       4.6072447E-02
       4.4869284E-02
       4.5797441E-02
       4.7682227E-02
       4.6839167E-02
       4.6649525E-02
       4.7270149E-02
       4.3267174E-02
       4.3646443E-02
       4.0648154E-02
       4.2065161E-02
       4.5390656E-02
       4.5734212E-02
       4.4066197E-02
       4.3428834E-02
       4.4281620E-02
       4.7836992E-02
       4.9575257E-02
       6.8229941E-03
       5.6751675E-04
       1.9228245E-03
       2.1114452E-04
       2.1726381E-02
       2.2212197E-02
       2.0785490E-02
       2.1435772E-02
       2.1870058E-02
       2.5229322E-02
       2.6819470E-02
       2.6512729E-02
       2.2275800E-02
       2.1574993E-02
       2.0633435E-02
       2.4777841E-02
       2.4311160E-02
       2.1743461E-02
       2.6564815E-02
       2.8873076E-02
       3.8550894E-03
       1.8330242E-03
       5.7688494E-03
       2.4805388E-03
       3.4901787E-03
       8.7347611E-03
       6.5888810E-04
       3.2578597E-03
       2.5277778E-04
       6.0375790E-04
       4.9646944E-04
       8.4804037E-04
       5.1486618E-04
       1.4987639E-03
       1.6918440E-04
       1.2093716E-02
       1.3510777E-02
       5.3299969E-03
       8.0665652E-03
       1.9967257E-02
       2.0161975E-02
       2.1254753E-02
       2.1122704E-02
       2.1854315E-02
       2.2386351E-02
       2.2729832E-02
       1.4426773E-02
       1.4157794E-02
       1.7060196E-02
       1.6758190E-02
       9.2592221E-03
       1.4887549E-02
       1.5878636E-02
       6.1307245E-03
       1.5573278E-02
       1.6989156E-02
       1.8115355E-02
       1.7521261E-02
       1.9175550E-02
       1.7533114E-02
       9.9090175E-04
       1.9012006E-02
       1.5863133E-02
       1.8897234E-02
       1.5242501E-02
       1.4946605E-02
       1.5170454E-02
       9.5392238E-03
       1.3013599E-02
       1.1807085E-02
       1.1717314E-02
       1.1398882E-02
       6.1263222E-03
       1.6425820E-03
       1.7676015E-02
       1.7116857E-02
       1.9107503E-02
       1.4532764E-02
       1.4836240E-02
       1.3904337E-02
       1.6153378E-02
       1.5371269E-02
       1.4599578E-02
       1.7395858E-02
       9.7969874E-03
       1.8893065E-03
       1.6058594E-03
       2.2161229E-02
       1.7571971E-02
       1.1496797E-02
       1.3863969E-02
       1.1118639E-02
       1.6032553E-02
       1.8582839E-02
       1.7890009E-02
       3.4167220E-02
       3.5389698E-02
       3.5495070E-02
       3.6138739E-02
       3.5859679E-02
       3.6810014E-02
       3.5006087E-02
       3.4963426E-02
       3.6194717E-02
       3.5121470E-02
       4.2182495E-02
       4.5002293E-02
       5.1964908E-02
       4.4401122E-02
       4.2675556E-02
       4.9054702E-02
       4.7960169E-02
       4.9093764E-02
       4.8065113E-02
       4.6051074E-02
       5.0450801E-02
       3.9701090E-02
       5.0012303E-02
       5.1262903E-02
       4.3524091E-02
       3.5395847E-02
       5.1418651E-02
       5.1036808E-02
       4.8343916E-02
       4.8642659E-02
       4.9148550E-02
       4.0150316E-02
       5.0393901E-02
       4.2628580E-02
       4.9695908E-02
       4.1671773E-02
       5.0916633E-02
       4.9234847E-02
       5.0436279E-02
       4.9947677E-02
       5.0653174E-02
       4.8623812E-02
       5.1442828E-02
       4.6118417E-02
       5.1041814E-02
       4.5600481E-02
       4.3934966E-02
       5.0655332E-02
       5.1435565E-02
       4.6033191E-02
       4.4427966E-02
       1.9434552E-02
       5.1881045E-02
       1.9042813E-02
       5.2312741E-02
       4.6829250E-02
       5.2261608E-02
       4.1107118E-02
       3.9880559E-02
       5.2285343E-02
       5.2728664E-02
       5.2666334E-02
       5.3131160E-02
       5.1891858E-02
       5.1837528E-02
       4.5651010E-02
       4.2005703E-02
       4.4977173E-02
       4.2191589E-02
       4.1556992E-02
       4.9627176E-02
       4.3665687E-02
       4.4722862E-02
       4.0823908E-02
       3.9271557E-02
       4.3909922E-02
       5.3454107E-02
       4.7062066E-02
       5.0749830E-02
       4.1124419E-02
       5.0401110E-02
       4.2153864E-02
       4.1519798E-02
       4.0150041E-02
       3.8423588E-02
       4.0060311E-02
       3.9787953E-02
       4.0670514E-02
       3.9744331E-02
       3.8563213E-02
       3.8973574E-02
       3.8261736E-02
       3.8562859E-02
       3.7592886E-02
       3.6268102E-02
       3.7306461E-02
       3.6686556E-02
       3.6895823E-02
       3.7838516E-02
       3.6809596E-02
       3.5651310E-02
       3.4809590E-02
       3.4937420E-02
       3.5174737E-02
       3.4042560E-02
       3.4793799E-02
       3.5853439E-02
       4.2094299E-02
       4.5206631E-02
       4.2944036E-02
       4.4337332E-02
       4.7575225E-02
       4.8902701E-02
       4.8355834E-02
       4.8837237E-02
       4.8357637E-02
       4.7415768E-02
       4.9147848E-02
       4.8062599E-02
       5.0276519E-02
       4.8216808E-02
       5.0062214E-02
       4.9456051E-02
       5.0814135E-02
       4.8862301E-02
       4.9236834E-02
       4.9028545E-02
       4.7630914E-02
       4.9857636E-02
       4.8399568E-02
       4.8387075E-02
       4.9408573E-02
       4.9596300E-02