# vtk DataFile Version 3.0
# Solution du M1 TR
ASCII
DATASET UNSTRUCTURED_GRID
POINTS   3280  float
0.0000000E+00  0.0000000E+00  0.8966993E-02
0.2000000E+01  0.0000000E+00  0.1960139E+01
0.2000000E+01  0.1000000E+01  0.1960152E+01
0.0000000E+00  0.1000000E+01  0.8943787E-02
0.1000000E+01  0.0000000E+00  0.9888607E+00
0.1000000E+01  0.1000000E+01  0.9884456E+00
0.1500000E+01  0.5000000E+00  0.1499732E+01
0.1500000E+01  0.0000000E+00  0.1474985E+01
0.1723284E+01  0.3570951E+00  0.1706309E+01
0.1500000E+01  0.2500000E+00  0.1497880E+01
0.1515103E+01  0.2763186E+00  0.1512601E+01
0.1594866E+01  0.2826386E+00  0.1586923E+01
0.1562500E+01  0.1875000E+00  0.1554830E+01
0.1534357E+01  0.1819434E+00  0.1527854E+01
0.1561083E+01  0.3343258E+00  0.1556099E+01
0.1750000E+01  0.0000000E+00  0.1715511E+01
0.1503267E+01  0.1622339E+00  0.1497609E+01
0.1514910E+01  0.2261192E+00  0.1511266E+01
0.1610795E+01  0.1290247E+00  0.1595391E+01
0.1539062E+01  0.1536458E+00  0.1530248E+01
0.1510772E+01  0.1982718E+00  0.1506316E+01
0.1541862E+01  0.2179813E+00  0.1536325E+01
0.1475030E+01  0.2178147E+00  0.1473799E+01
0.1539206E+01  0.2578835E+00  0.1534592E+01
0.1521085E+01  0.2465697E+00  0.1517371E+01
0.1496499E+01  0.2146241E+00  0.1493629E+01
0.1481433E+01  0.1870688E+00  0.1478146E+01
0.1586261E+01  0.1960616E+00  0.1576843E+01
0.1460896E+01  0.2899333E+00  0.1462065E+01
0.1542195E+01  0.2867649E+00  0.1537875E+01
0.1486080E+01  0.2754813E+00  0.1485388E+01
0.1536278E+01  0.3247610E+00  0.1533050E+01
0.1510131E+01  0.3295675E+00  0.1508785E+01
0.1455545E+01  0.2514402E+00  0.1456401E+01
0.1610995E+01  0.1909452E+00  0.1600117E+01
0.1564462E+01  0.2395252E+00  0.1557952E+01
0.1571524E+01  0.3026484E+00  0.1565349E+01
0.1613657E+01  0.2555806E+00  0.1604214E+01
0.1633998E+01  0.2714643E+00  0.1623095E+01
0.1534973E+01  0.3650914E+00  0.1531522E+01
0.1583157E+01  0.2286349E+00  0.1574909E+01
0.1586501E+01  0.1581416E+00  0.1575466E+01
0.1651985E+01  0.2274641E+00  0.1639523E+01
0.1619170E+01  0.2936434E+00  0.1609444E+01
0.1678889E+01  0.2641389E+00  0.1664833E+01
0.1642286E+01  0.2930521E+00  0.1630790E+01
0.1526415E+01  0.3446283E+00  0.1523772E+01
0.1662420E+01  0.3044259E+00  0.1649602E+01
0.1636786E+01  0.2469276E+00  0.1625675E+01
0.1588953E+01  0.3366240E+00  0.1581938E+01
0.1616427E+01  0.3314099E+00  0.1607280E+01
0.1598305E+01  0.3102698E+00  0.1590257E+01
0.1655410E+01  0.2614708E+00  0.1642911E+01
0.1487553E+01  0.3072167E+00  0.1487272E+01
0.1520126E+01  0.3036443E+00  0.1517693E+01
0.1477894E+01  0.2544664E+00  0.1477543E+01
0.1567847E+01  0.2133479E+00  0.1560221E+01
0.1663947E+01  0.3299725E+00  0.1651464E+01
0.1567022E+01  0.2696000E+00  0.1560900E+01
0.1678598E+01  0.3509559E+00  0.1664848E+01
0.1611933E+01  0.3827205E+00  0.1602807E+01
0.1640491E+01  0.3197373E+00  0.1629512E+01
0.1588015E+01  0.2526666E+00  0.1580153E+01
0.1708471E+01  0.3144917E+00  0.1692464E+01
0.1606944E+01  0.3564315E+00  0.1598434E+01
0.1604614E+01  0.2314093E+00  0.1595093E+01
0.1643491E+01  0.3631133E+00  0.1632340E+01
0.2000000E+01  0.5000000E+00  0.1960338E+01
0.1494727E+01  0.3621796E+00  0.1494180E+01
0.1701807E+01  0.3477237E+00  0.1686251E+01
0.1572156E+01  0.3701847E+00  0.1566268E+01
0.1688392E+01  0.3285111E+00  0.1674019E+01
0.1695932E+01  0.3904821E+00  0.1680765E+01
0.1636337E+01  0.3418163E+00  0.1625883E+01
0.1505941E+01  0.9448485E-01  0.1488678E+01
0.1423727E+01  0.1910920E+00  0.1423868E+01
0.1481447E+01  0.3359634E+00  0.1481979E+01
0.1441613E+01  0.3726133E+00  0.1444790E+01
0.1466699E+01  0.3599060E+00  0.1468217E+01
0.1476682E+01  0.4107296E+00  0.1477634E+01
0.1434448E+01  0.3273535E+00  0.1437966E+01
0.1464523E+01  0.3867258E+00  0.1466401E+01
0.1456903E+01  0.3373583E+00  0.1459142E+01
0.1454188E+01  0.3132491E+00  0.1456103E+01
0.1424069E+01  0.2919612E+00  0.1427317E+01
0.1490969E+01  0.3884111E+00  0.1490951E+01
0.1428051E+01  0.4202828E+00  0.1432361E+01
0.1513790E+01  0.3782958E+00  0.1511945E+01
0.1547789E+01  0.4092466E+00  0.1543666E+01
0.1535154E+01  0.3889763E+00  0.1531798E+01
0.1512699E+01  0.4170463E+00  0.1511294E+01
0.1441554E+01  0.3983607E+00  0.1444981E+01
0.1395941E+01  0.3853832E+00  0.1402227E+01
0.1420578E+01  0.3854393E+00  0.1425253E+01
0.1408336E+01  0.3518173E+00  0.1413582E+01
0.1549967E+01  0.3074339E+00  0.1545586E+01
0.1651639E+01  0.4114272E+00  0.1639877E+01
0.1668616E+01  0.3788978E+00  0.1655569E+01
0.1674624E+01  0.4027285E+00  0.1661295E+01
0.1706988E+01  0.4343785E+00  0.1691236E+01
0.1673984E+01  0.4357547E+00  0.1660536E+01
0.1695270E+01  0.4139894E+00  0.1680407E+01
0.1737273E+01  0.4034108E+00  0.1719159E+01
0.1645630E+01  0.3875965E+00  0.1634428E+01
0.1625874E+01  0.4052508E+00  0.1615932E+01
0.1627808E+01  0.4540126E+00  0.1618151E+01
0.1587158E+01  0.4136289E+00  0.1580112E+01
0.1633718E+01  0.4293591E+00  0.1623541E+01
0.1651607E+01  0.4466828E+00  0.1640025E+01
0.1605650E+01  0.4356658E+00  0.1597395E+01
0.1682168E+01  0.4808869E+00  0.1668062E+01
0.1671711E+01  0.4594749E+00  0.1658699E+01
0.1698428E+01  0.4596870E+00  0.1683504E+01
0.1646221E+01  0.4851828E+00  0.1634910E+01
0.1607747E+01  0.4151289E+00  0.1599174E+01
0.1584205E+01  0.4841185E+00  0.1577418E+01
0.1747573E+01  0.4622079E+00  0.1728905E+01
0.1568396E+01  0.4481495E+00  0.1562717E+01
0.1601760E+01  0.4629165E+00  0.1594054E+01
0.1723356E+01  0.4540167E+00  0.1706463E+01
0.1732897E+01  0.4294241E+00  0.1715031E+01
0.1722218E+01  0.4972746E+00  0.1705431E+01
0.1715121E+01  0.4754441E+00  0.1698868E+01
0.1584567E+01  0.4345797E+00  0.1577882E+01
0.1563465E+01  0.4258523E+00  0.1558426E+01
0.1534166E+01  0.4440258E+00  0.1531022E+01
0.1615090E+01  0.4918227E+00  0.1606210E+01
0.1717469E+01  0.4134541E+00  0.1700862E+01
0.1718488E+01  0.3909170E+00  0.1701577E+01
0.1741353E+01  0.3769080E+00  0.1722903E+01
0.1781199E+01  0.4241746E+00  0.1759771E+01
0.2000000E+01  0.2500000E+00  0.1960231E+01
0.1756308E+01  0.4199875E+00  0.1736894E+01
0.1762447E+01  0.3937207E+00  0.1742498E+01
0.1765097E+01  0.4438197E+00  0.1744956E+01
0.1807974E+01  0.4625425E+00  0.1783907E+01
0.1789176E+01  0.4471344E+00  0.1766916E+01
0.1514158E+01  0.1287364E+00  0.1504147E+01
0.1777674E+01  0.4803377E+00  0.1756669E+01
0.1811145E+01  0.4395021E+00  0.1787331E+01
0.1850404E+01  0.4566449E+00  0.1822601E+01
0.1748483E+01  0.3522599E+00  0.1729464E+01
0.1731235E+01  0.3304535E+00  0.1713637E+01
0.1777870E+01  0.3654441E+00  0.1756887E+01
0.1748149E+01  0.2821176E+00  0.1729089E+01
0.1732875E+01  0.3039003E+00  0.1715044E+01
0.1708314E+01  0.2807181E+00  0.1692380E+01
0.1767650E+01  0.3193756E+00  0.1747328E+01
0.1372661E+01  0.1704076E+00  0.1373728E+01
0.1411157E+01  0.2494459E+00  0.1414651E+01
0.1448000E+01  0.2246098E+00  0.1448561E+01
0.1360382E+01  0.2278583E+00  0.1365732E+01
0.1433680E+01  0.2431125E+00  0.1435786E+01
0.1388814E+01  0.2314916E+00  0.1392860E+01
0.1314549E+01  0.2124991E+00  0.1321509E+01
0.1404157E+01  0.2007613E+00  0.1406334E+01
0.1415035E+01  0.1072182E+00  0.1407133E+01
0.1520299E+01  0.1091515E+00  0.1506660E+01
0.1459010E+01  0.1690672E+00  0.1456083E+01
0.1436337E+01  0.2690050E+00  0.1438618E+01
0.1443480E+01  0.1263360E+00  0.1437487E+01
0.1625000E+01  0.0000000E+00  0.1594563E+01
0.1414954E+01  0.2197329E+00  0.1417126E+01
0.1335299E+01  0.2266424E+00  0.1341704E+01
0.1396801E+01  0.1612344E+00  0.1395828E+01
0.1792033E+01  0.3934232E+00  0.1769888E+01
0.1541310E+01  0.1264947E+00  0.1529788E+01
0.1483859E+01  0.1256971E+00  0.1474483E+01
0.1500341E+01  0.1139400E+00  0.1488667E+01
0.1498380E+01  0.1421255E+00  0.1490266E+01
0.1478242E+01  0.1468909E+00  0.1472278E+01
0.1453147E+01  0.1972183E+00  0.1452168E+01
0.1348833E+01  0.2067866E+00  0.1353953E+01
0.1368157E+01  0.2800764E+00  0.1374561E+01
0.1250000E+01  0.0000000E+00  0.1233531E+01
0.1496272E+01  0.2780308E-01  0.1472618E+01
0.1430228E+01  0.1622338E+00  0.1427677E+01
0.1544491E+01  0.1012427E+00  0.1527939E+01
0.1505524E+01  0.5428530E-01  0.1484095E+01
0.1576405E+01  0.1180891E+00  0.1561444E+01
0.1526885E+01  0.8834234E-01  0.1507653E+01
0.1558557E+01  0.6358195E-01  0.1536041E+01
0.1372206E+01  0.9428859E-01  0.1362337E+01
0.1414069E+01  0.8636887E-01  0.1401843E+01
0.1351230E+01  0.1581055E+00  0.1352385E+01
0.1371634E+01  0.2528708E+00  0.1377348E+01
0.1392978E+01  0.2694234E+00  0.1397837E+01
0.1321668E+01  0.2603105E+00  0.1329950E+01
0.1392566E+01  0.3027057E+00  0.1398071E+01
0.1345601E+01  0.2495441E+00  0.1352422E+01
0.1349996E+01  0.1827855E+00  0.1353421E+01
0.1475238E+01  0.9618066E-01  0.1460735E+01
0.1487372E+01  0.4556180E+00  0.1487845E+01
0.1432024E+01  0.3509343E+00  0.1435686E+01
0.1619231E+01  0.5383449E+00  0.1609678E+01
0.1532505E+01  0.4233173E+00  0.1529573E+01
0.1547332E+01  0.4788657E+00  0.1543317E+01
0.1627786E+01  0.4750493E+00  0.1617780E+01
0.1750658E+01  0.4911384E+00  0.1731896E+01
0.1783313E+01  0.5336292E+00  0.1761744E+01
0.1744147E+01  0.5299352E+00  0.1725567E+01
0.1772978E+01  0.5077787E+00  0.1752229E+01
0.1739682E+01  0.5092411E+00  0.1721481E+01
0.1715917E+01  0.5251974E+00  0.1699410E+01
0.1809547E+01  0.4999146E+00  0.1785445E+01
0.1486188E+01  0.5335558E+00  0.1486242E+01
0.1695320E+01  0.5058771E+00  0.1680548E+01
0.1793562E+01  0.5145404E+00  0.1770931E+01
0.1827482E+01  0.5355643E+00  0.1801854E+01
0.1805457E+01  0.5332234E+00  0.1781941E+01
0.1812320E+01  0.5734372E+00  0.1788455E+01
0.1794794E+01  0.5557356E+00  0.1772430E+01
0.1637325E+01  0.5533192E+00  0.1626533E+01
0.1761146E+01  0.5591762E+00  0.1741441E+01
0.1789115E+01  0.5788851E+00  0.1767003E+01
0.1693317E+01  0.6123782E+00  0.1678649E+01
0.1522396E+01  0.5359490E+00  0.1519936E+01
0.1814654E+01  0.6254783E+00  0.1790343E+01
0.1726166E+01  0.5505978E+00  0.1708847E+01
0.1691322E+01  0.5307786E+00  0.1676896E+01
0.1516987E+01  0.5143680E+00  0.1515196E+01
0.1661909E+01  0.5147686E+00  0.1649382E+01
0.1761865E+01  0.6508066E+00  0.1741835E+01
0.1692174E+01  0.5698207E+00  0.1677671E+01
0.1780214E+01  0.6037461E+00  0.1759035E+01
[...]
POINT_DATA    3280
SCALARS hauteur float
LOOKUP_TABLE DEFAULT
       8.9669926E-03
       5.7516271E-06
       1.9031669E-05
       8.9437873E-03
       8.7941077E-03
       8.3790140E-03
       2.9632518E-02
       4.8851962E-03
       1.7376562E-02
       2.7780384E-02
       2.7698688E-02
       2.3848326E-02
       2.3475821E-02
       2.4082195E-02
       2.6134040E-02
       3.9468546E-04
       2.4307065E-02
       2.6553378E-02
       1.6704190E-02
       2.1864584E-02
       2.5659465E-02
       2.5197653E-02
       2.8171434E-02
       2.6068156E-02
       2.6606603E-02
       2.6960183E-02
       2.6243641E-02
       2.2201050E-02
       3.0289605E-02
       2.6421237E-02
       2.8930877E-02
       2.7394919E-02
       2.8756952E-02
       2.9870282E-02
       2.1234873E-02
       2.4674457E-02
       2.5151070E-02
       2.2721867E-02
       2.1668186E-02
       2.7145772E-02
       2.3309129E-02
       2.0589120E-02
       2.0467602E-02
       2.2550128E-02
       1.9409538E-02
       2.1239934E-02
       2.7783692E-02
       2.0319403E-02
       2.1514920E-02
       2.4658880E-02
       2.3074296E-02
       2.3811618E-02
       2.0498142E-02
       2.9371353E-02
       2.7867549E-02
       2.9108531E-02
       2.3627020E-02
       2.0684534E-02
       2.5113331E-02
       1.9710064E-02
       2.3005069E-02
       2.1721326E-02
       2.3792451E-02
       1.8048936E-02
       2.3522473E-02
       2.2463734E-02
       2.1609527E-02
       2.0472768E-04
       2.9248178E-02
       1.8367299E-02
       2.5450689E-02
       1.9282569E-02
       1.8638689E-02
       2.2163570E-02
       1.2755594E-02
       2.8520212E-02
       3.0062591E-02
       3.1912957E-02
       3.0755145E-02
       3.0387159E-02
       3.2112230E-02
       3.1070856E-02
       3.1280320E-02
       3.0901449E-02
       3.1634354E-02
       2.9702434E-02
       3.2775840E-02
       2.8330523E-02
       2.6729155E-02
       2.7244792E-02
       2.8748532E-02
       3.2162016E-02
       3.4112435E-02
       3.2991799E-02
       3.3319308E-02
       2.6515400E-02
       2.1160653E-02
       2.0215056E-02
       2.0052029E-02
       1.8274705E-02
       1.9920469E-02
       1.8929432E-02
       1.6515808E-02
       2.1601470E-02
       2.2467416E-02
       2.2790952E-02
       2.4591578E-02
       2.2388910E-02
       2.1339487E-02
       2.3751482E-02
       1.9425020E-02
       2.0310377E-02
       1.8932153E-02
       2.1503136E-02
       2.3474794E-02
       2.4791963E-02
       1.6167132E-02
       2.5584664E-02
       2.4222533E-02
       1.7459463E-02
       1.6676549E-02
       1.7542985E-02
       1.7935702E-02
       2.4900615E-02
       2.6126168E-02
       2.7437012E-02
       2.3314426E-02
       1.7628637E-02
       1.7343705E-02
       1.6261235E-02
       1.4076641E-02
       9.8047810E-05
       1.5595658E-02
       1.5182090E-02
       1.5043161E-02
       1.1972361E-02
       1.3404811E-02
       2.0171000E-02
       1.4430030E-02
       1.2287641E-02
       9.0819601E-03
       1.5834841E-02
       1.6911629E-02
       1.4456304E-02
       1.5787296E-02
       1.6710842E-02
       1.8119064E-02
       1.4913319E-02
       2.8428816E-02
       3.1623292E-02
       2.9424557E-02
       3.2466401E-02
       3.0684288E-02
       3.1729510E-02
       3.3163945E-02
       3.0166231E-02
       2.0304062E-02
       1.6665799E-02
       2.6156466E-02
       3.0912785E-02
       2.2780904E-02
       1.9547978E-03
       3.0377111E-02
       3.3021717E-02
       2.6869872E-02
       1.3576891E-02
       1.9201267E-02
       2.0202026E-02
       1.8233114E-02
       2.1753770E-02
       2.3502618E-02
       2.7986369E-02
       3.2006735E-02
       3.3675941E-02
       8.4475072E-03
       6.1724522E-03
       2.5958398E-02
       1.4235121E-02
       8.5811518E-03
       1.6462011E-02
       1.1204389E-02
       8.5511908E-03
       1.7483484E-02
       1.5961319E-02
       2.8089405E-02
       3.3055504E-02
       3.2625424E-02
       3.4627622E-02
       3.3263115E-02
       3.3642873E-02
       3.0334781E-02
       1.4904007E-02
       3.0121481E-02
       3.2206705E-02
       2.2723639E-02
       2.7616668E-02
       2.6828128E-02
       2.2440921E-02
       1.6134963E-02
       1.3979235E-02
       1.6187372E-02
       1.4593325E-02
       1.6476508E-02
       1.7697621E-02
       1.1968907E-02
       2.9678617E-02
       1.9021437E-02
       1.3121332E-02
       1.0800238E-02
       1.2472839E-02
       1.2261306E-02
       1.3412365E-02
       2.1845541E-02
       1.5400623E-02
       1.3551303E-02
       1.9085941E-02
       2.7886250E-02
       1.1861305E-02
       1.7088587E-02
       1.9288493E-02
       2.8448089E-02
       2.0600318E-02
       1.5089364E-02
       1.9227975E-02
       1.4306943E-02
       2.5735153E-02
       2.0372637E-02
       1.5897681E-02
       2.4689432E-02
       1.9499137E-02
       1.6600733E-02
       1.6004736E-02
       1.7304495E-02
       1.6940953E-02
       1.0745671E-02
       1.1353757E-02
       1.5502150E-04
       1.4612453E-02
       8.1160418E-03
       1.3856043E-02
       1.5265229E-02
       1.9168833E-02
       1.6832723E-02
       1.2620806E-02
       1.0243446E-02
       1.0457328E-02
       1.1827943E-02
       1.2696045E-02
       1.2780157E-02
       1.4432632E-02
       2.2144473E-02
       3.0878485E-02
       1.8093840E-02
       1.9945414E-02
       2.2090077E-02
       2.5289486E-02
       8.3002262E-03
       1.1388193E-02
       7.8621467E-03
       3.7281699E-03
       3.7286457E-03
       4.9980913E-03
       1.2792341E-02
       1.2912042E-02
       4.3277782E-03
       1.6794052E-02
       7.2107549E-03
       1.5783828E-02
       5.4604973E-03
       1.1592262E-03
       1.2329012E-02
       1.9364732E-02
       1.8294300E-02
       2.0107723E-02
       1.0792465E-02
       2.0120084E-02
       2.5558313E-02
       2.3997803E-02
       2.9824152E-02
       2.8160453E-02
       2.4805918E-02
       2.8874009E-02
       1.4896714E-02
       7.4077267E-03
       2.4645225E-02
       1.1352329E-02
       2.3789343E-02
       8.5531915E-03
       3.2380279E-02
       3.2741428E-02
       3.3887199E-02
       3.4499932E-02
       3.4952579E-02
       2.9821213E-02
       2.8633900E-02
       3.1336770E-02
       2.7917596E-02
       2.8090061E-02
       2.4030854E-02
       2.6882628E-02
       2.1570820E-02
       2.6655069E-02
       2.5685958E-02
       1.2814078E-02
       1.1047477E-02
       1.0001870E-02
       1.5105064E-02
       2.0468064E-02
       1.0009900E-02
       1.2576994E-02
       2.1980903E-02
       2.4313058E-02
       1.1412515E-02
       1.8093994E-02
       1.2213646E-02
       1.7202638E-02
       1.5111677E-02
       1.6016556E-02
       1.6412378E-02
       1.2440566E-02
       8.3594668E-03
       1.0883340E-04
       1.3399851E-02
       5.3823100E-03
       1.5024502E-02
       1.3753352E-02
       2.0581735E-02
       2.5036592E-04
       1.0686794E-02
       1.4622408E-02
       1.3433834E-02
       1.8805803E-02
       1.7840754E-02
       4.4097990E-03
       2.3288987E-02
       4.9580261E-03
       1.6041221E-02
       2.5951343E-02
       4.3659582E-03
       1.6660918E-03
       1.8293393E-02
       1.7773212E-02
       1.9515178E-02
       1.9642254E-02
       1.2324237E-02
       1.9739632E-02
       1.8325500E-02
       1.9483104E-02
       2.1161134E-02
       1.8062363E-02
       1.4281952E-02
       1.6548331E-02
       1.7922214E-02
       1.1085498E-03
       1.0503427E-02
       1.0031991E-02
       1.1988847E-02
       5.3419567E-03
       5.1388827E-03
       2.4068182E-03
       2.5501543E-03
       1.5769052E-03
       1.8528012E-02
       2.0147357E-02
       1.8790564E-02
       1.5756424E-02
       2.0198458E-02
       1.3401641E-02
       6.3549215E-03
       1.1546035E-02
       6.8695646E-03
       5.6803975E-03
       4.3323912E-03
       6.2250417E-03
       7.5833335E-03
       3.1674713E-02
       3.6007084E-02
       3.4077843E-02
       3.4848635E-02
       3.5917474E-02
       3.4298800E-02
       3.5366443E-02
       3.6307190E-02
       3.6106612E-02
       3.7236000E-02
       3.5421091E-02
       3.6740342E-02
       3.7457448E-02
       3.7083486E-02
       3.6418457E-02
       3.6723784E-02
       3.5765737E-02
       3.4359953E-02
       3.3829406E-02
       3.3360906E-02
       3.3441466E-02
       3.4615245E-02
       3.4854502E-02
       3.5278987E-02
       3.1464946E-02
       2.7898425E-02
       3.1835201E-02
       3.0217430E-02
       2.8404042E-02
       3.4825278E-02
       3.6205998E-02
       3.5791362E-02
       3.5376704E-02
       3.5233254E-02
       3.6003295E-02
       3.7284258E-02
       3.6793897E-02
       3.4804023E-02
       3.6626447E-02
       3.7096551E-02
       3.7351878E-02
       3.6723738E-02
       3.5432867E-02
       3.5744553E-02
       3.8237830E-02
       3.6590776E-02
       3.8080208E-02
       3.7800890E-02
       3.7736948E-02
       3.7673343E-02
       3.8205033E-02
       3.7836619E-02
       3.7498797E-02
       3.7719344E-02
       3.8077205E-02
       3.8619771E-02
       3.8352328E-02
       3.8452290E-02
       3.7839684E-02
       3.8769425E-02
       3.7631827E-02
       3.8455671E-02
       3.6525372E-02
       3.8369328E-02
       3.8706861E-02
       3.8982968E-02
       3.8903339E-02
       3.9110983E-02
       3.8974073E-02
       3.8402976E-02
       3.8090064E-02
       3.7277550E-02
       3.8041862E-02
       3.9040548E-02
       3.9112508E-02
       3.9117819E-02
       3.9249828E-02
       3.9190270E-02
       3.8498429E-02
       3.8988665E-02
       3.6846470E-02
       3.7583682E-02
       3.9189765E-02
       3.9174920E-02
       3.8834790E-02
       3.9051517E-02
       3.9162748E-02
       3.5754548E-02
       3.7625242E-02
       3.9268359E-02
       3.7020513E-02
       3.8409566E-02
       3.9224532E-02
       3.9202383E-02
       3.5548120E-02
       3.8150914E-02
       3.8535838E-02
       3.9102218E-02
       3.9028030E-02
       3.9107510E-02
       3.9244884E-02
       3.9131442E-02
       3.6285589E-02
       3.5619597E-02
       3.6519167E-02
       3.3767253E-02
       3.6672895E-02
       3.4822935E-02
       3.5094929E-02
       3.4445153E-02
       3.9270290E-02
       3.9191641E-02
       3.3802672E-02
       3.9198313E-02
       3.9322303E-02
       3.8743236E-02
       3.9208427E-02
       3.2595910E-02
       3.4209694E-02
       3.3317282E-02
       3.1651638E-02
       3.2658265E-02
       3.2594246E-02
       3.9305646E-02
       3.9291106E-02
       3.9304212E-02
       3.8956681E-02
       3.1670348E-02
       3.0652728E-02
       3.9272689E-02
       3.9273005E-02
       3.9028395E-02
       3.8403019E-02
       3.0816734E-02
       3.8860372E-02
       3.8798873E-02
       3.8681583E-02
       3.2001420E-02
       3.8798884E-02
       3.9039742E-02
       3.8056611E-02
       3.9234032E-02
       3.8408527E-02
       3.9092340E-02
       3.9188358E-02
       3.9259963E-02
       3.9334529E-02
       3.9311789E-02
       3.9313108E-02
       3.9330146E-02
       3.9323860E-02
       3.9294750E-02
       3.9281075E-02
       3.9328077E-02
       3.9335279E-02
       3.1564742E-02
       1.1775812E-02
       9.2190784E-03
       3.9764385E-03
       7.2245373E-03
       4.4706261E-03
       6.3534514E-03
       6.0903578E-03
       7.7304424E-03
       8.0674269E-03
       7.2185769E-03
       8.7749129E-03
       5.8173344E-05
       4.6218665E-04
       4.9006508E-03
       5.3707702E-03
       3.2446923E-03
       1.5243463E-03
       5.6891891E-03
       7.9999226E-04
       8.0534890E-04
       3.6613250E-03
       1.8905802E-03
       8.8461128E-04
       1.7638954E-03
       1.0625995E-04
       2.9287574E-02
       2.0868188E-02
       1.9811865E-02
       2.2150115E-02
       2.0627603E-02
       2.1222561E-02
       2.2427142E-02
       2.7290237E-02
       2.5006854E-02
       2.6298330E-02
       2.7536864E-02
       2.5268803E-02
       2.6233890E-02
       2.4016839E-02
       2.6485626E-02
       2.7822897E-02
       2.7211512E-02
       2.8942704E-02
       3.0037099E-02
       2.9014705E-02
       2.7366981E-02
       2.5125467E-02
       2.6254350E-02
       2.5406242E-02
       2.6215332E-02
       2.7839928E-02
       2.6663684E-02
       2.5424144E-02
       2.6684523E-02
       2.5803797E-02
       2.6782139E-02
       2.3481685E-02
       2.6625628E-02
       2.3922801E-02
       2.8461207E-02
       2.5347914E-02
       2.7828467E-02
       2.9128619E-02
       2.4867796E-02
       2.5256397E-02
       2.6938162E-02
       2.8850936E-02
       3.0872551E-02
       2.9747679E-02
       2.8678271E-02
       3.1371574E-02
       2.9508547E-02
       3.0546215E-02
       2.9686083E-02
       2.8309466E-02
       3.0477597E-02
       3.0034410E-02
       3.1533665E-02
       2.9802270E-02
       3.0881881E-02
       3.3209082E-02
       3.2045515E-02
       3.3343746E-02
       1.4819145E-02
       1.6514019E-02
       1.7803228E-02
       1.8511858E-02
       1.7761399E-02
       1.5875253E-02
       1.0148723E-02
       3.1707144E-03
       9.9405380E-03
       6.8608749E-03
       1.8351382E-02
       2.1733266E-02
       1.5298507E-02
       1.4224354E-02
       1.9236704E-02
       1.9402946E-02
       1.7917893E-02
       1.5933471E-02
       1.6476359E-02
       1.7161339E-02
       1.7076109E-02
       1.8578560E-02
       1.3942492E-02
       1.3699120E-02
       1.5323683E-02
       1.4984283E-02
       1.2666785E-02
       1.3881718E-02
       1.4658574E-02
       1.0844635E-02
       9.1723445E-03
       1.2514099E-02
       1.1408882E-02
       1.2402672E-02
       1.2738068E-02
       1.6250190E-02
       1.1131309E-02
       1.2800099E-02
       5.9932465E-03
       3.0624820E-03
       3.4867196E-03
       2.0502205E-03
       2.1387904E-02
       2.2186014E-02
       2.1727448E-02
       7.3842882E-03
       8.7082680E-03
       9.3949863E-03
       6.5741606E-03
       6.9006165E-03
       4.9246091E-03
       3.1923444E-02
       3.0666297E-02
       3.2332282E-02
       3.0402860E-02
       3.2871189E-02
       2.7973080E-02
       3.4008774E-02
       2.7741586E-02
       3.5024373E-02
       3.3404310E-02
       3.0099535E-02
       3.1182601E-02
       1.8519033E-02
       3.3906747E-02
       2.4535816E-02
       2.4625862E-02
       8.8607027E-03
       2.2809002E-02
       3.6018665E-02
       1.4782903E-02
       1.2961202E-02
       1.5731539E-02
       1.5685528E-02
       3.3750042E-02
       3.5338654E-02
       2.7582952E-02
       2.6031117E-02
       3.6399454E-02
       3.8146075E-02
       3.7954120E-02
       3.6128679E-02
       3.8179435E-02
       3.8963565E-02
       3.8849038E-02
       3.9302027E-02
       3.9222022E-02
       3.9279507E-02
       3.8544641E-02
       3.8400246E-02
       3.8253822E-02
       3.8662576E-02
       3.8923108E-02
       3.8741816E-02
       3.8923180E-02
       3.8498219E-02
       3.6451050E-02
       3.7532373E-02
       3.7013524E-02
       3.8276611E-02
       3.9332408E-02
       3.9318890E-02
       3.9326582E-02
       3.9322765E-02
       3.9313843E-02
       3.9185790E-02
       3.9334902E-02
       8.3742582E-03
       5.7772174E-04
       2.7076231E-03
       1.1911307E-04
       2.2797929E-02
       2.3690055E-02
       2.1386912E-02
       2.2527063E-02
       2.3086450E-02
       2.9059190E-02
       3.1675252E-02
       3.1222896E-02
       2.3899528E-02
       2.2736625E-02
       2.1845764E-02
       2.8338285E-02
       2.7566351E-02
       2.5178410E-02
       3.1268879E-02
       3.4487202E-02
       5.0737380E-03
       2.3287820E-03
       7.0631344E-03
       3.5620362E-03
       4.5750302E-03
       9.4006193E-03
       7.2398383E-04
       4.2912422E-03
       2.1417678E-04
       6.7172637E-04
       5.0551594E-04
       1.0326476E-03
       5.5418957E-04
       1.8949115E-03
       9.1228574E-05
       1.1919190E-02
       1.2986832E-02
       6.8739963E-03
       9.2631151E-03
       2.0254565E-02
       2.0679822E-02
       2.2407314E-02
       2.2388300E-02
       2.3284965E-02
       2.4262033E-02
       2.4758351E-02
       1.3925913E-02
       1.3613102E-02
       1.6667178E-02
       1.6805626E-02
       9.7033471E-03
       1.4502150E-02
       1.5500998E-02
       7.2862597E-03
       1.5060987E-02
       1.6867769E-02
       1.8346092E-02
       1.8177020E-02
       1.9666381E-02
       1.7916686E-02
       7.2622660E-04
       1.9788044E-02
       1.6233562E-02
       1.9438440E-02
       1.5316045E-02
       1.5559569E-02
       1.4977480E-02
       9.3438282E-03
       1.2740899E-02
       1.1396520E-02
       1.1635865E-02
       1.1076678E-02
       5.9821949E-03
       1.6224325E-03
       1.9003530E-02
       1.8065056E-02
       2.0386252E-02
       1.3781907E-02
       1.4054919E-02
       1.3210417E-02
       1.5451071E-02
       1.4600754E-02
       1.3866736E-02
       1.6969121E-02
       1.0176782E-02
       1.9416980E-03
       1.4554538E-03
       2.5142232E-02
       1.9789827E-02
       1.3455127E-02
       1.5840752E-02
       1.2323971E-02
       1.8685436E-02
       2.1324080E-02
       1.9606771E-02
       3.6752486E-02
       3.8720512E-02
       3.8723608E-02
       3.8862432E-02
       3.8817527E-02
       3.8962709E-02
       3.8611017E-02
       3.8581904E-02
       3.8830780E-02
       3.8571145E-02
       3.9309860E-02
       3.7869695E-02
       3.9124550E-02
       3.4737085E-02
       3.6586432E-02
       3.8536228E-02
       3.8441068E-02
       3.8721160E-02
       3.8266114E-02
       3.7775884E-02
       3.8841808E-02
       3.3211393E-02
       3.8907770E-02
       3.9012203E-02
       3.6154921E-02
       3.5159882E-02
       3.9143493E-02
       3.9169996E-02
       3.8875947E-02
       3.9113831E-02
       3.9018850E-02
       3.1790043E-02
       3.9274224E-02
       3.7504119E-02
       3.9201458E-02
       3.5599790E-02
       3.8984825E-02
       3.9261150E-02
       3.9100245E-02
       3.9120413E-02
       3.9223046E-02
       3.8763274E-02
       3.9313345E-02
       3.7497330E-02
       3.9290121E-02
       3.7001692E-02
       3.7170487E-02
       3.9324088E-02
       3.9252463E-02
       3.8062938E-02
       3.6401362E-02
       8.9451728E-03
       3.9199199E-02
       9.4704284E-03
       3.9245031E-02
       3.7590691E-02
       3.9319698E-02
       3.5730197E-02
       3.4448485E-02
       3.9296374E-02
       3.9337607E-02
       3.9319860E-02
       3.9327351E-02
       3.9245295E-02
       3.9292996E-02
       3.6639889E-02
       3.6836362E-02
       3.6997394E-02
       3.5500550E-02
       3.4621496E-02
       3.8969709E-02
       3.5168793E-02
       3.7235867E-02
       3.4573747E-02
       3.7282471E-02
       3.5720507E-02
       3.9333127E-02
       3.8042183E-02
       3.9051465E-02
       3.7640751E-02
       3.8913639E-02
       3.7769376E-02
       3.7148862E-02
       3.6182717E-02
       3.5843855E-02
       3.7197697E-02
       3.8347002E-02
       3.7906345E-02
       3.7927632E-02
       3.7973412E-02
       3.8473761E-02
       3.7223413E-02
       3.8627545E-02
       3.6326375E-02
       3.6771896E-02
       3.7272535E-02
       3.6325204E-02
       3.7668014E-02
       3.8175380E-02
       3.8102087E-02
       3.7538802E-02
       3.6661200E-02
       3.6119314E-02
       3.5624486E-02
       3.4346060E-02
       3.7484159E-02
       3.7112142E-02
       3.8662071E-02
       3.9331006E-02
       3.9301550E-02
       3.9123803E-02
       3.9069698E-02
       3.9328222E-02
       3.9335170E-02
       3.9321662E-02
       3.9330697E-02
       3.9283871E-02
       3.9335541E-02
       3.9309110E-02
       3.9322882E-02
       3.9240580E-02
       3.9335755E-02
       3.9321301E-02
       3.9334769E-02
       3.9287413E-02
       3.9172081E-02
       3.9239911E-02
       3.8998803E-02
       3.9251281E-02
       3.9142900E-02
       3.8846524E-02
       3.9312188E-02
       3.9293910E-02