# vtk DataFile Version 3.0
# Solution du M1 TR
ASCII
DATASET UNSTRUCTURED_GRID
POINTS   3280  float
0.0000000E+00  0.0000000E+00  0.2547598E-01
0.2000000E+01  0.0000000E+00  0.1960199E+01
0.2000000E+01  0.1000000E+01  0.1960334E+01
0.0000000E+00  0.1000000E+01  0.2540769E-01
0.1000000E+01  0.0000000E+00  0.9911294E+00
0.1000000E+01  0.1000000E+01  0.9911190E+00
0.1500000E+01  0.5000000E+00  0.1497328E+01
0.1500000E+01  0.0000000E+00  0.1474428E+01
0.1723284E+01  0.3570951E+00  0.1705153E+01
0.1500000E+01  0.2500000E+00  0.1495502E+01
0.1515103E+01  0.2763186E+00  0.1510355E+01
0.1594866E+01  0.2826386E+00  0.1585979E+01
0.1562500E+01  0.1875000E+00  0.1553761E+01
0.1534357E+01  0.1819434E+00  0.1526391E+01
0.1561083E+01  0.3343258E+00  0.1554359E+01
0.1750000E+01  0.0000000E+00  0.1715537E+01
0.1503267E+01  0.1622339E+00  0.1495771E+01
0.1514910E+01  0.2261192E+00  0.1509307E+01
0.1610795E+01  0.1290247E+00  0.1594802E+01
0.1539062E+01  0.1536458E+00  0.1529034E+01
0.1510772E+01  0.1982718E+00  0.1504452E+01
0.1541862E+01  0.2179813E+00  0.1534841E+01
0.1475030E+01  0.2178147E+00  0.1471102E+01
0.1539206E+01  0.2578835E+00  0.1532951E+01
0.1521085E+01  0.2465697E+00  0.1515475E+01
0.1496499E+01  0.2146241E+00  0.1491397E+01
0.1481433E+01  0.1870688E+00  0.1475859E+01
0.1586261E+01  0.1960616E+00  0.1576200E+01
0.1460896E+01  0.2899333E+00  0.1458834E+01
0.1542195E+01  0.2867649E+00  0.1536108E+01
0.1486080E+01  0.2754813E+00  0.1482654E+01
0.1536278E+01  0.3247610E+00  0.1530903E+01
0.1510131E+01  0.3295675E+00  0.1506155E+01
0.1455545E+01  0.2514402E+00  0.1453210E+01
0.1610995E+01  0.1909452E+00  0.1599757E+01
0.1564462E+01  0.2395252E+00  0.1556762E+01
0.1571524E+01  0.3026484E+00  0.1563972E+01
0.1613657E+01  0.2555806E+00  0.1603595E+01
0.1633998E+01  0.2714643E+00  0.1622631E+01
0.1534973E+01  0.3650914E+00  0.1529429E+01
0.1583157E+01  0.2286349E+00  0.1574122E+01
0.1586501E+01  0.1581416E+00  0.1574757E+01
0.1651985E+01  0.2274641E+00  0.1639302E+01
0.1619170E+01  0.2936434E+00  0.1608761E+01
0.1678889E+01  0.2641389E+00  0.1664382E+01
0.1642286E+01  0.2930521E+00  0.1630296E+01
0.1526415E+01  0.3446283E+00  0.1521471E+01
0.1662420E+01  0.3044259E+00  0.1649070E+01
0.1636786E+01  0.2469276E+00  0.1625305E+01
0.1588953E+01  0.3366240E+00  0.1580616E+01
0.1616427E+01  0.3314099E+00  0.1606363E+01
0.1598305E+01  0.3102698E+00  0.1589242E+01
0.1655410E+01  0.2614708E+00  0.1642541E+01
0.1487553E+01  0.3072167E+00  0.1484422E+01
0.1520126E+01  0.3036443E+00  0.1515396E+01
0.1477894E+01  0.2544664E+00  0.1474681E+01
0.1567847E+01  0.2133479E+00  0.1559252E+01
0.1663947E+01  0.3299725E+00  0.1650800E+01
0.1567022E+01  0.2696000E+00  0.1559602E+01
0.1678598E+01  0.3509559E+00  0.1664113E+01
0.1611933E+01  0.3827205E+00  0.1601764E+01
0.1640491E+01  0.3197373E+00  0.1628848E+01
0.1588015E+01  0.2526666E+00  0.1579271E+01
0.1708471E+01  0.3144917E+00  0.1691614E+01
0.1606944E+01  0.3564315E+00  0.1597303E+01
0.1604614E+01  0.2314093E+00  0.1594558E+01
0.1643491E+01  0.3631133E+00  0.1631486E+01
0.2000000E+01  0.5000000E+00  0.1960495E+01
0.1494727E+01  0.3621796E+00  0.1491366E+01
0.1701807E+01  0.3477237E+00  0.1685348E+01
0.1572156E+01  0.3701847E+00  0.1564667E+01
0.1688392E+01  0.3285111E+00  0.1673346E+01
0.1695932E+01  0.3904821E+00  0.1679890E+01
0.1636337E+01  0.3418163E+00  0.1625040E+01
0.1505941E+01  0.9448485E-01  0.1487256E+01
0.1423727E+01  0.1910920E+00  0.1420682E+01
0.1481447E+01  0.3359634E+00  0.1478872E+01
0.1441613E+01  0.3726133E+00  0.1441058E+01
0.1466699E+01  0.3599060E+00  0.1464867E+01
0.1476682E+01  0.4107296E+00  0.1474517E+01
0.1434448E+01  0.3273535E+00  0.1434108E+01
0.1464523E+01  0.3867258E+00  0.1462986E+01
0.1456903E+01  0.3373583E+00  0.1455595E+01
0.1454188E+01  0.3132491E+00  0.1452683E+01
0.1424069E+01  0.2919612E+00  0.1423590E+01
0.1490969E+01  0.3884111E+00  0.1488009E+01
0.1428051E+01  0.4202828E+00  0.1428439E+01
0.1513790E+01  0.3782958E+00  0.1509472E+01
0.1547789E+01  0.4092466E+00  0.1541799E+01
0.1535154E+01  0.3889763E+00  0.1529715E+01
0.1512699E+01  0.4170463E+00  0.1508768E+01
0.1441554E+01  0.3983607E+00  0.1441206E+01
0.1395941E+01  0.3853832E+00  0.1397775E+01
0.1420578E+01  0.3854393E+00  0.1421158E+01
0.1408336E+01  0.3518173E+00  0.1409325E+01
0.1549967E+01  0.3074339E+00  0.1543754E+01
0.1651639E+01  0.4114272E+00  0.1639110E+01
0.1668616E+01  0.3788978E+00  0.1654798E+01
0.1674624E+01  0.4027285E+00  0.1660524E+01
0.1706988E+01  0.4343785E+00  0.1690279E+01
0.1673984E+01  0.4357547E+00  0.1659792E+01
0.1695270E+01  0.4139894E+00  0.1679593E+01
0.1737273E+01  0.4034108E+00  0.1717607E+01
0.1645630E+01  0.3875965E+00  0.1633558E+01
0.1625874E+01  0.4052508E+00  0.1615030E+01
0.1627808E+01  0.4540126E+00  0.1617418E+01
0.1587158E+01  0.4136289E+00  0.1578835E+01
0.1633718E+01  0.4293591E+00  0.1622773E+01
0.1651607E+01  0.4466828E+00  0.1639401E+01
0.1605650E+01  0.4356658E+00  0.1596418E+01
0.1682168E+01  0.4808869E+00  0.1667200E+01
0.1671711E+01  0.4594749E+00  0.1658032E+01
0.1698428E+01  0.4596870E+00  0.1682612E+01
0.1646221E+01  0.4851828E+00  0.1634335E+01
0.1607747E+01  0.4151289E+00  0.1598142E+01
0.1584205E+01  0.4841185E+00  0.1576422E+01
0.1747573E+01  0.4622079E+00  0.1727024E+01
0.1568396E+01  0.4481495E+00  0.1561356E+01
0.1601760E+01  0.4629165E+00  0.1593065E+01
0.1723356E+01  0.4540167E+00  0.1705229E+01
0.1732897E+01  0.4294241E+00  0.1713509E+01
0.1722218E+01  0.4972746E+00  0.1703846E+01
0.1715121E+01  0.4754441E+00  0.1697549E+01
0.1584567E+01  0.4345797E+00  0.1576642E+01
0.1563465E+01  0.4258523E+00  0.1556811E+01
0.1534166E+01  0.4440258E+00  0.1529089E+01
0.1615090E+01  0.4918227E+00  0.1605509E+01
0.1717469E+01  0.4134541E+00  0.1699769E+01
0.1718488E+01  0.3909170E+00  0.1700380E+01
0.1741353E+01  0.3769080E+00  0.1721316E+01
0.1781199E+01  0.4241746E+00  0.1757024E+01
0.2000000E+01  0.2500000E+00  0.1960356E+01
0.1756308E+01  0.4199875E+00  0.1734893E+01
0.1762447E+01  0.3937207E+00  0.1740412E+01
0.1765097E+01  0.4438197E+00  0.1742601E+01
0.1807974E+01  0.4625425E+00  0.1779467E+01
0.1789176E+01  0.4471344E+00  0.1763532E+01
0.1514158E+01  0.1287364E+00  0.1502650E+01
0.1777674E+01  0.4803377E+00  0.1753816E+01
0.1811145E+01  0.4395021E+00  0.1783405E+01
0.1850404E+01  0.4566449E+00  0.1817735E+01
0.1748483E+01  0.3522599E+00  0.1727832E+01
0.1731235E+01  0.3304535E+00  0.1712379E+01
0.1777870E+01  0.3654441E+00  0.1754606E+01
0.1748149E+01  0.2821176E+00  0.1727630E+01
0.1732875E+01  0.3039003E+00  0.1713835E+01
0.1708314E+01  0.2807181E+00  0.1691696E+01
0.1767650E+01  0.3193756E+00  0.1745367E+01
0.1372661E+01  0.1704076E+00  0.1370222E+01
0.1411157E+01  0.2494459E+00  0.1410763E+01
0.1448000E+01  0.2246098E+00  0.1445367E+01
0.1360382E+01  0.2278583E+00  0.1361490E+01
0.1433680E+01  0.2431125E+00  0.1432241E+01
0.1388814E+01  0.2314916E+00  0.1388842E+01
0.1314549E+01  0.2124991E+00  0.1317142E+01
0.1404157E+01  0.2007613E+00  0.1402681E+01
0.1415035E+01  0.1072182E+00  0.1404668E+01
0.1520299E+01  0.1091515E+00  0.1505298E+01
0.1459010E+01  0.1690672E+00  0.1453479E+01
0.1436337E+01  0.2690050E+00  0.1435099E+01
0.1443480E+01  0.1263360E+00  0.1434996E+01
0.1625000E+01  0.0000000E+00  0.1594364E+01
0.1414954E+01  0.2197329E+00  0.1413535E+01
0.1335299E+01  0.2266424E+00  0.1337337E+01
0.1396801E+01  0.1612344E+00  0.1392682E+01
0.1792033E+01  0.3934232E+00  0.1767136E+01
0.1541310E+01  0.1264947E+00  0.1528562E+01
0.1483859E+01  0.1256971E+00  0.1472662E+01
0.1500341E+01  0.1139400E+00  0.1487053E+01
0.1498380E+01  0.1421255E+00  0.1488540E+01
0.1478242E+01  0.1468909E+00  0.1470165E+01
0.1453147E+01  0.1972183E+00  0.1449336E+01
0.1348833E+01  0.2067866E+00  0.1349812E+01
0.1368157E+01  0.2800764E+00  0.1370031E+01
0.1250000E+01  0.0000000E+00  0.1233247E+01
0.1496272E+01  0.2780308E-01  0.1471812E+01
0.1430228E+01  0.1622338E+00  0.1424837E+01
0.1544491E+01  0.1012427E+00  0.1526802E+01
0.1505524E+01  0.5428530E-01  0.1483001E+01
0.1576405E+01  0.1180891E+00  0.1560529E+01
0.1526885E+01  0.8834234E-01  0.1506411E+01
0.1558557E+01  0.6358195E-01  0.1535019E+01
0.1372206E+01  0.9428859E-01  0.1359943E+01
0.1414069E+01  0.8636887E-01  0.1399674E+01
0.1351230E+01  0.1581055E+00  0.1348852E+01
0.1371634E+01  0.2528708E+00  0.1372967E+01
0.1392978E+01  0.2694234E+00  0.1393633E+01
0.1321668E+01  0.2603105E+00  0.1325223E+01
0.1392566E+01  0.3027057E+00  0.1393715E+01
0.1345601E+01  0.2495441E+00  0.1347900E+01
0.1349996E+01  0.1827855E+00  0.1349569E+01
0.1475238E+01  0.9618066E-01  0.1459046E+01
0.1487372E+01  0.4556180E+00  0.1484996E+01
0.1432024E+01  0.3509343E+00  0.1431818E+01
0.1619231E+01  0.5383449E+00  0.1609176E+01
0.1532505E+01  0.4233173E+00  0.1527484E+01
0.1547332E+01  0.4788657E+00  0.1541778E+01
0.1627786E+01  0.4750493E+00  0.1617147E+01
0.1750658E+01  0.4911384E+00  0.1729721E+01
0.1783313E+01  0.5336292E+00  0.1757693E+01
0.1744147E+01  0.5299352E+00  0.1722998E+01
0.1772978E+01  0.5077787E+00  0.1748904E+01
0.1739682E+01  0.5092411E+00  0.1719247E+01
0.1715917E+01  0.5251974E+00  0.1697807E+01
0.1809547E+01  0.4999146E+00  0.1780434E+01
0.1486188E+01  0.5335558E+00  0.1483905E+01
0.1695320E+01  0.5058771E+00  0.1679493E+01
0.1793562E+01  0.5145404E+00  0.1766448E+01
0.1827482E+01  0.5355643E+00  0.1796492E+01
0.1805457E+01  0.5332234E+00  0.1776971E+01
0.1812320E+01  0.5734372E+00  0.1783539E+01
0.1794794E+01  0.5557356E+00  0.1767994E+01
0.1637325E+01  0.5533192E+00  0.1625985E+01
0.1761146E+01  0.5591762E+00  0.1738211E+01
0.1789115E+01  0.5788851E+00  0.1762741E+01
0.1693317E+01  0.6123782E+00  0.1677720E+01
0.1522396E+01  0.5359490E+00  0.1518261E+01
0.1814654E+01  0.6254783E+00  0.1785502E+01
0.1726166E+01  0.5505978E+00  0.1706726E+01
0.1691322E+01  0.5307786E+00  0.1675894E+01
0.1516987E+01  0.5143680E+00  0.1513279E+01
0.1661909E+01  0.5147686E+00  0.1648638E+01
0.1761865E+01  0.6508066E+00  0.1738818E+01
0.1692174E+01  0.5698207E+00  0.1676706E+01
0.1780214E+01  0.6037461E+00  0.1755317E+01
[...]
POINT_DATA    3280
SCALARS hauteur float
LOOKUP_TABLE DEFAULT
       2.5475979E-02
       6.5568527E-05
       2.0119137E-04
       2.5407686E-02
       1.1062839E-02
       1.1052387E-02
       2.7228448E-02
       4.3278081E-03
       1.6219726E-02
       2.5401732E-02
       2.5452817E-02
       2.2904435E-02
       2.2406908E-02
       2.2618757E-02
       2.4393284E-02
       4.2004238E-04
       2.2468853E-02
       2.4594532E-02
       1.6114940E-02
       2.0649926E-02
       2.3795145E-02
       2.3714095E-02
       2.5474498E-02
       2.4426471E-02
       2.4709982E-02
       2.4728092E-02
       2.3956427E-02
       2.1558550E-02
       2.7058872E-02
       2.4654787E-02
       2.6196805E-02
       2.5247927E-02
       2.6126963E-02
       2.6679429E-02
       2.0874839E-02
       2.3485004E-02
       2.3774045E-02
       2.2103385E-02
       2.1203895E-02
       2.5052441E-02
       2.2521965E-02
       1.9880326E-02
       2.0246237E-02
       2.1867349E-02
       1.8958824E-02
       2.0746376E-02
       2.5482844E-02
       1.9787864E-02
       2.1144947E-02
       2.3336137E-02
       2.2157009E-02
       2.2797464E-02
       2.0128769E-02
       2.6520940E-02
       2.5570831E-02
       2.6246428E-02
       2.2657721E-02
       2.0020528E-02
       2.3815700E-02
       1.8974449E-02
       2.1962580E-02
       2.1058159E-02
       2.2910618E-02
       1.7198916E-02
       2.2390979E-02
       2.1929427E-02
       2.0755798E-02
       3.6158014E-04
       2.6433730E-02
       1.7463781E-02
       2.3849655E-02
       1.8608978E-02
       1.7763431E-02
       2.1320478E-02
       1.1334277E-02
       2.5334542E-02
       2.6955105E-02
       2.8181143E-02
       2.7404479E-02
       2.7269810E-02
       2.8253995E-02
       2.7656067E-02
       2.7732745E-02
       2.7482074E-02
       2.7907396E-02
       2.6760564E-02
       2.8854105E-02
       2.5856931E-02
       2.4862214E-02
       2.5161137E-02
       2.6221988E-02
       2.8386929E-02
       2.9660012E-02
       2.8897223E-02
       2.9062149E-02
       2.4683410E-02
       2.0394034E-02
       1.9443946E-02
       1.9280034E-02
       1.7317199E-02
       1.9175835E-02
       1.8116021E-02
       1.4963455E-02
       2.0731268E-02
       2.1565411E-02
       2.2058414E-02
       2.3314760E-02
       2.1620710E-02
       2.0715730E-02
       2.2773873E-02
       1.8563531E-02
       1.9643818E-02
       1.8039900E-02
       2.0928876E-02
       2.2442665E-02
       2.3795656E-02
       1.4286570E-02
       2.4223191E-02
       2.3233036E-02
       1.6225670E-02
       1.5154687E-02
       1.5957573E-02
       1.6616078E-02
       2.3660046E-02
       2.4510999E-02
       2.5504221E-02
       2.2613584E-02
       1.6535606E-02
       1.6146485E-02
       1.4673666E-02
       1.1329624E-02
       2.2307232E-04
       1.3594478E-02
       1.3096492E-02
       1.2688608E-02
       7.5324117E-03
       1.0020378E-02
       1.8674229E-02
       1.1577906E-02
       8.3614949E-03
       4.2162112E-03
       1.4202296E-02
       1.5653350E-02
       1.2175075E-02
       1.4327946E-02
       1.5501871E-02
       1.7434614E-02
       1.2952123E-02
       2.4922291E-02
       2.7735152E-02
       2.6230067E-02
       2.8225330E-02
       2.7139367E-02
       2.7711645E-02
       2.8796633E-02
       2.6512908E-02
       1.7839288E-02
       1.5303739E-02
       2.3552621E-02
       2.7393848E-02
       2.0290050E-02
       1.7556527E-03
       2.6785929E-02
       2.8655137E-02
       2.3723714E-02
       1.0825073E-02
       1.7975804E-02
       1.8381300E-02
       1.6619569E-02
       2.0028269E-02
       2.1389581E-02
       2.5155325E-02
       2.7865880E-02
       2.9145846E-02
       8.1638688E-03
       5.3663646E-03
       2.3117926E-02
       1.3098121E-02
       7.4875323E-03
       1.5547702E-02
       9.9619758E-03
       7.5297881E-03
       1.5089433E-02
       1.3792825E-02
       2.4556113E-02
       2.8674191E-02
       2.8421580E-02
       2.9901150E-02
       2.8907415E-02
       2.9121364E-02
       2.6483177E-02
       1.3215109E-02
       2.7272179E-02
       2.8339142E-02
       2.2221568E-02
       2.5527329E-02
       2.5289399E-02
       2.1808336E-02
       1.3959159E-02
       9.9284636E-03
       1.3618036E-02
       1.1268374E-02
       1.4242666E-02
       1.6094135E-02
       6.9576768E-03
       2.7342459E-02
       1.7966007E-02
       8.6378705E-03
       5.4384544E-03
       7.5030790E-03
       7.3444114E-03
       8.9761862E-03
       2.1297710E-02
       1.2170755E-02
       9.2887839E-03
       1.8157325E-02
       2.6211231E-02
       7.0202756E-03
       1.4967732E-02
       1.8285817E-02
       2.6530843E-02
       1.9856129E-02
       1.2072971E-02
       1.8263187E-02
       1.0588986E-02
       2.4595828E-02
       1.9617878E-02
       1.3255678E-02
       2.3868390E-02
       1.8424697E-02
       1.4539719E-02
       1.3646982E-02
       1.5734222E-02
       1.5357110E-02
       6.1354155E-03
       7.8665789E-03
       3.6788731E-04
       1.2349419E-02
       3.7729556E-03
       1.0249103E-02
       1.2212697E-02
       1.8557419E-02
       1.6145111E-02
       9.2047835E-03
       6.1753022E-03
       6.2877562E-03
       8.2699263E-03
       9.6881731E-03
       9.7502246E-03
       1.2212405E-02
       2.0666226E-02
       2.6986982E-02
       1.7401209E-02
       1.8989359E-02
       2.1116385E-02
       2.2171479E-02
       7.4695289E-03
       1.0390082E-02
       7.0049583E-03
       3.2815744E-03
       3.0880669E-03
       4.3747560E-03
       1.1971063E-02
       1.2138155E-02
       3.5319460E-03
       1.6571239E-02
       6.3367916E-03
       1.5298377E-02
       4.6927805E-03
       1.0898983E-03
       1.1573749E-02
       1.9147116E-02
       1.7947855E-02
       1.9661532E-02
       9.4445138E-03
       1.8061175E-02
       2.2348789E-02
       2.1559388E-02
       2.6053371E-02
       2.4606273E-02
       2.1742789E-02
       2.5411567E-02
       1.2954641E-02
       6.5005004E-03
       2.1843733E-02
       9.8414508E-03
       2.0927989E-02
       7.3893431E-03
       2.8327677E-02
       2.8623751E-02
       2.9381838E-02
       2.9883795E-02
       3.0135372E-02
       2.6975969E-02
       2.6287094E-02
       2.7980178E-02
       2.5947613E-02
       2.6193235E-02
       2.3401130E-02
       2.5440200E-02
       2.0987744E-02
       2.5033123E-02
       2.4404273E-02
       8.7525499E-03
       5.9582396E-03
       4.7352155E-03
       1.1809006E-02
       1.9793280E-02
       5.2129056E-03
       7.9372235E-03
       2.1419905E-02
       2.3640311E-02
       7.3223771E-03
       1.6780780E-02
       8.0666950E-03
       1.5565242E-02
       1.2318617E-02
       1.3899562E-02
       1.4340146E-02
       8.0150695E-03
       4.1038658E-03
       1.4540874E-04
       9.9060228E-03
       2.2697722E-03
       1.2602495E-02
       9.7558023E-03
       1.9788820E-02
       4.2358249E-04
       5.5963535E-03
       1.1824320E-02
       1.0368502E-02
       1.7617274E-02
       1.6286183E-02
       4.0571268E-03
       2.2718458E-02
       2.0083568E-03
       1.4418901E-02
       2.4875908E-02
       1.7433638E-03
       8.3908450E-04
       1.7000771E-02
       1.6531314E-02
       1.8526220E-02
       1.8796403E-02
       9.5234420E-03
       1.8698594E-02
       1.7498234E-02
       1.8399491E-02
       2.0100792E-02
       1.7059345E-02
       1.2121166E-02
       1.5558794E-02
       1.7407901E-02
       6.0257689E-04
       5.8239515E-03
       5.9138816E-03
       8.4534887E-03
       4.5788200E-03
       4.4586120E-03
       2.1732504E-03
       2.1964902E-03
       1.4199579E-03
       1.8441587E-02
       1.9977170E-02
       1.6632857E-02
       1.3855753E-02
       1.7606773E-02
       1.1465978E-02
       5.5389006E-03
       9.8952237E-03
       5.9996539E-03
       4.9981656E-03
       3.7947086E-03
       5.4240315E-03
       6.5797502E-03
       2.7842738E-02
       3.1159081E-02
       2.9440767E-02
       3.0034477E-02
       3.0973236E-02
       2.9598377E-02
       3.0488091E-02
       3.1464171E-02
       3.1176138E-02
       3.2308925E-02
       3.0657074E-02
       3.1798884E-02
       3.2802965E-02
       3.2232455E-02
       3.1881310E-02
       3.2003201E-02
       3.1092348E-02
       2.9778821E-02
       2.9295891E-02
       2.9169870E-02
       2.9104293E-02
       3.0082289E-02
       3.0669808E-02
       3.0800093E-02
       2.7504554E-02
       2.4664369E-02
       2.7722913E-02
       2.6349222E-02
       2.4921753E-02
       3.0048119E-02
       3.1190006E-02
       3.0839712E-02
       3.0499724E-02
       3.0484598E-02
       3.1052002E-02
       3.2281895E-02
       3.1760400E-02
       3.0275232E-02
       3.1628661E-02
       3.2136422E-02
       3.2373612E-02
       3.1722841E-02
       3.0724509E-02
       3.1030225E-02
       3.3551719E-02
       3.1596866E-02
       3.3394284E-02
       3.2921487E-02
       3.2881490E-02
       3.2904092E-02
       3.3867422E-02
       3.3317402E-02
       3.3145214E-02
       3.2820378E-02
       3.3330915E-02
       3.4317807E-02
       3.3779215E-02
       3.4091989E-02
       3.3123960E-02
       3.5027571E-02
       3.2804253E-02
       3.4395812E-02
       3.1816775E-02
       3.3762390E-02
       3.4638982E-02
       3.5290955E-02
       3.5138874E-02
       3.6037192E-02
       3.5579096E-02
       3.4992177E-02
       3.4116359E-02
       3.2488429E-02
       3.3273359E-02
       3.5616813E-02
       3.5733449E-02
       3.5866920E-02
       3.6582409E-02
       3.6307440E-02
       3.4811303E-02
       3.6233150E-02
       3.2001665E-02
       3.2875793E-02
       3.6148711E-02
       3.6065431E-02
       3.5579210E-02
       3.6125637E-02
       3.6482636E-02
       3.1148302E-02
       3.2887715E-02
       3.7014885E-02
       3.2286782E-02
       3.3953025E-02
       3.6680846E-02
       3.6914373E-02
       3.1108656E-02
       3.3542197E-02
       3.4144455E-02
       3.6577828E-02
       3.6913209E-02
       3.6872954E-02
       3.7633720E-02
       3.7343079E-02
       3.1673101E-02
       3.1102281E-02
       3.1913085E-02
       2.9717956E-02
       3.2018110E-02
       3.0439139E-02
       3.0579036E-02
       3.0255693E-02
       3.7423593E-02
       3.8203980E-02
       2.9606720E-02
       3.7216394E-02
       3.7679584E-02
       3.7092985E-02
       3.7861440E-02
       2.8869080E-02
       2.9948400E-02
       2.9364026E-02
       2.8445963E-02
       2.9037607E-02
       2.9108887E-02
       3.7492146E-02
       3.7057309E-02
       3.7884184E-02
       3.7141809E-02
       2.8341536E-02
       2.7775217E-02
       3.6752651E-02
       3.8266268E-02
       3.7625064E-02
       3.6104831E-02
       2.7988185E-02
       3.7988159E-02
       3.6627557E-02
       3.6059963E-02
       2.8701127E-02
       3.7538266E-02
       3.8102228E-02
       3.6766767E-02
       3.8893098E-02
       3.6927462E-02
       3.8570959E-02
       3.8538612E-02
       3.8574655E-02
       3.8817735E-02
       3.8565896E-02
       3.8220316E-02
       3.8126567E-02
       3.9222061E-02
       3.8893650E-02
       3.9341960E-02
       3.8963082E-02
       3.9159487E-02
       2.8030839E-02
       6.5340315E-03
       4.1081098E-03
       1.5752006E-03
       2.8932861E-03
       1.7297603E-03
       2.5549905E-03
       2.3582159E-03
       3.5130717E-03
       4.0192320E-03
       3.4051381E-03
       4.6931767E-03
       1.8068562E-04
       3.5350664E-04
       2.0304062E-03
       2.3462225E-03
       1.4176591E-03
       7.4282404E-04
       2.4643604E-03
       4.8960400E-04
       4.8001675E-04
       1.5489966E-03
       9.2734181E-04
       5.2190151E-04
       8.6644302E-04
       1.9639816E-04
       2.7057068E-02
       2.0230821E-02
       1.8997956E-02
       2.1588819E-02
       1.9939974E-02
       2.0616530E-02
       2.1765350E-02
       2.5776386E-02
       2.4220718E-02
       2.5019254E-02
       2.5982553E-02
       2.4372398E-02
       2.5113599E-02
       2.3286009E-02
       2.5249190E-02
       2.6078963E-02
       2.5418629E-02
       2.6884687E-02
       2.7606202E-02
       2.6778924E-02
       2.5657821E-02
       2.3918508E-02
       2.4818467E-02
       2.3863425E-02
       2.4591729E-02
       2.5530240E-02
       2.4748108E-02
       2.3634662E-02
       2.4611449E-02
       2.4040515E-02
       2.4416614E-02
       2.2211013E-02
       2.4430465E-02
       2.2341157E-02
       2.5716476E-02
       2.3451085E-02
       2.5384350E-02
       2.6365579E-02
       2.2776652E-02
       2.3214954E-02
       2.4330834E-02
       2.6371456E-02
       2.7331831E-02
       2.6646399E-02
       2.5685782E-02
       2.7935040E-02
       2.6337222E-02
       2.6841367E-02
       2.6326971E-02
       2.5261751E-02
       2.7236176E-02
       2.7098691E-02
       2.8344948E-02
       2.7165883E-02
       2.7780805E-02
       2.9213960E-02
       2.8501058E-02
       2.9548245E-02
       1.1380046E-02
       1.4113518E-02
       1.6201389E-02
       1.7249907E-02
       1.6401969E-02
       1.3920349E-02
       5.6306642E-03
       1.3694499E-03
       5.8726245E-03
       2.6913515E-03
       1.7238397E-02
       2.0774772E-02
       1.3717525E-02
       1.2232192E-02
       1.8975568E-02
       1.9262106E-02
       1.7653902E-02
       1.5393238E-02
       1.5905273E-02
       1.6936360E-02
       1.6949937E-02
       1.8502638E-02
       1.3320971E-02
       1.1899298E-02
       1.4140268E-02
       1.3934935E-02
       1.1285289E-02
       1.2567557E-02
       1.3845517E-02
       7.8764719E-03
       7.5680524E-03
       1.0448783E-02
       7.5908641E-03
       9.5106949E-03
       9.5571243E-03
       1.5159494E-02
       7.4120159E-03
       9.8719928E-03
       5.2066409E-03
       2.7160533E-03
       2.8473655E-03
       1.7172850E-03
       2.1073533E-02
       1.9360265E-02
       1.8954357E-02
       6.3801062E-03
       7.4802297E-03
       8.0498989E-03
       5.6812836E-03
       5.9577229E-03
       4.2997276E-03
       2.7775182E-02
       2.6956265E-02
       2.8743255E-02
       2.6926995E-02
       2.8923477E-02
       2.5163852E-02
       3.0117869E-02
       2.4734687E-02
       3.1220420E-02
       2.9898882E-02
       2.6872342E-02
       2.8129254E-02
       1.6865966E-02
       3.0712287E-02
       2.1844529E-02
       2.2115973E-02
       9.8309777E-03
       2.0690292E-02
       3.1924617E-02
       1.3944279E-02
       1.1226055E-02
       1.4289003E-02
       1.4040026E-02
       3.0376366E-02
       3.1829317E-02
       2.4141915E-02
       2.2775816E-02
       3.1510311E-02
       3.3572633E-02
       3.3713865E-02
       3.1390944E-02
       3.3523422E-02
       3.5166453E-02
       3.4787264E-02
       3.7324493E-02
       3.6301305E-02
       3.7965771E-02
       3.7434166E-02
       3.7822170E-02
       3.7302623E-02
       3.7894585E-02
       3.8760981E-02
       3.8313423E-02
       3.8377732E-02
       3.8342974E-02
       3.5729109E-02
       3.6449406E-02
       3.5147290E-02
       3.6400501E-02
       3.8450963E-02
       3.8597112E-02
       3.8019741E-02
       3.7820868E-02
       3.8095975E-02
       3.9076315E-02
       3.9934773E-02
       3.5469812E-03
       4.6452655E-04
       1.0939926E-03
       2.6844574E-04
       2.2300372E-02
       2.3137061E-02
       2.0678464E-02
       2.1679516E-02
       2.2513687E-02
       2.6985802E-02
       2.8587420E-02
       2.8260851E-02
       2.3018464E-02
       2.1946382E-02
       2.0756125E-02
       2.6203825E-02
       2.5510186E-02
       2.2548931E-02
       2.8287878E-02
       3.0358422E-02
       2.1741511E-03
       1.0640870E-03
       3.3685701E-03
       1.4316272E-03
       2.0030149E-03
       5.5068515E-03
       4.3324981E-04
       1.8748354E-03
       1.8383888E-04
       3.7756681E-04
       3.9782692E-04
       6.2542114E-04
       3.2952915E-04
       8.7874993E-04
       1.8806340E-04
       8.3849443E-03
       1.0149952E-02
       2.8921054E-03
       4.3321846E-03
       1.9331886E-02
       1.9715776E-02
       2.1295911E-02
       2.1201767E-02
       2.2200367E-02
       2.2965918E-02
       2.3501136E-02
       1.2025990E-02
       1.1281282E-02
       1.5426251E-02
       1.6202616E-02
       6.0304117E-03
       1.3532491E-02
       1.4609827E-02
       3.6641090E-03
       1.3695189E-02
       1.6167310E-02
       1.7675411E-02
       1.7491640E-02
       1.8852194E-02
       1.7290085E-02
       8.7027257E-04
       1.9034104E-02
       1.5529202E-02
       1.8722268E-02
       1.4611580E-02
       1.4713500E-02
       1.4232744E-02
       7.5775751E-03
       1.1440866E-02
       9.3055203E-03
       1.0399457E-02
       9.0872615E-03
       4.1721297E-03
       1.6079723E-03
       1.7970328E-02
       1.7230036E-02
       1.9411375E-02
       1.1728733E-02
       1.1894906E-02
       1.0312128E-02
       1.4105831E-02
       1.2640716E-02
       1.1401370E-02
       1.6079367E-02
       5.8391282E-03
       1.7190895E-03
       1.1704661E-03
       2.2187815E-02
       1.7503920E-02
       1.1820399E-02
       1.3974814E-02
       1.1182022E-02
       1.6299590E-02
       1.8727278E-02
       1.7537035E-02
       3.2732920E-02
       3.4526264E-02
       3.4589425E-02
       3.4866495E-02
       3.4772895E-02
       3.5231418E-02
       3.4225316E-02
       3.4125101E-02
       3.4749212E-02
       3.4145180E-02
       3.7355653E-02
       3.7128396E-02
       4.1235022E-02
       3.6411451E-02
       3.5592632E-02
       3.9185597E-02
       3.8599364E-02
       3.9276582E-02
       3.8568715E-02
       3.7457937E-02
       4.0115746E-02
       3.2796981E-02
       3.9829858E-02
       4.0731780E-02
       3.5669947E-02
       3.2381437E-02
       4.0757070E-02
       4.0488886E-02
       3.9010649E-02
       3.9295254E-02
       3.9443654E-02
       3.2699966E-02
       4.0157908E-02
       3.6067874E-02
       3.9803582E-02
       3.4686321E-02
       4.0432685E-02
       3.9681603E-02
       4.0117879E-02
       3.9865965E-02
       4.0271513E-02
       3.9078851E-02
       4.0730909E-02
       3.7341391E-02
       4.0500484E-02
       3.6910978E-02
       3.6359983E-02
       4.0333856E-02
       4.0747645E-02
       3.7629167E-02
       3.6149616E-02
       1.6733334E-02
       4.1067365E-02
       1.4297506E-02
       4.1382551E-02
       3.7709900E-02
       4.1221550E-02
       3.4567842E-02
       3.3446262E-02
       4.1269219E-02
       4.1612427E-02
       4.1590817E-02
       4.2067321E-02
       4.1033748E-02
       4.0956554E-02
       3.6854480E-02
       3.5485803E-02
       3.6640765E-02
       3.4829928E-02
       3.4181510E-02
       3.9645002E-02
       3.5420617E-02
       3.6682617E-02
       3.3866581E-02
       3.4874729E-02
       3.5690467E-02
       4.2602762E-02
       3.8007194E-02
       4.0287870E-02
       3.5699630E-02
       4.0049062E-02
       3.6092043E-02
       3.5482099E-02
       3.4497074E-02
       3.3762982E-02
       3.5097982E-02
       3.5668191E-02
       3.5727232E-02
       3.5424603E-02
       3.5006853E-02
       3.5440570E-02
       3.4480549E-02
       3.5407019E-02
       3.3742018E-02
       3.3544968E-02
       3.4164333E-02
       3.3438664E-02
       3.4225420E-02
       3.4838793E-02
       3.4426261E-02
       3.3694984E-02
       3.2954467E-02
       3.2721452E-02
       3.2539467E-02
       3.1468429E-02
       3.3335487E-02
       3.3571094E-02
       3.6663294E-02
       3.8407765E-02
       3.7647329E-02
       3.7957178E-02
       3.8847400E-02
       3.9659906E-02
       3.9448178E-02
       3.9663984E-02
       3.9471581E-02
       3.9115184E-02
       3.9765538E-02
       3.9371931E-02
       4.0192578E-02
       3.9389270E-02
       4.0108349E-02
       3.9863441E-02
       4.0435157E-02
       3.9650393E-02
       3.9681163E-02
       3.9664248E-02
       3.8954757E-02
       3.9988320E-02
       3.9356066E-02
       3.9109404E-02
       3.9842530E-02
       3.9895464E-02