# vtk DataFile Version 3.0
# Solution du M1 TR
ASCII
DATASET UNSTRUCTURED_GRID
POINTS   3280  float
0.0000000E+00  0.0000000E+00  0.2177229E-01
0.2000000E+01  0.0000000E+00  0.1960218E+01
0.2000000E+01  0.1000000E+01  0.1960366E+01
0.0000000E+00  0.1000000E+01  0.2177620E-01
0.1000000E+01  0.0000000E+00  0.9916830E+00
0.1000000E+01  0.1000000E+01  0.9918349E+00
0.1500000E+01  0.5000000E+00  0.1497262E+01
0.1500000E+01  0.0000000E+00  0.1474193E+01
0.1723284E+01  0.3570951E+00  0.1704007E+01
0.1500000E+01  0.2500000E+00  0.1495471E+01
0.1515103E+01  0.2763186E+00  0.1510273E+01
0.1594866E+01  0.2826386E+00  0.1585713E+01
0.1562500E+01  0.1875000E+00  0.1553710E+01
0.1534357E+01  0.1819434E+00  0.1526362E+01
0.1561083E+01  0.3343258E+00  0.1554144E+01
0.1750000E+01  0.0000000E+00  0.1715488E+01
0.1503267E+01  0.1622339E+00  0.1495739E+01
0.1514910E+01  0.2261192E+00  0.1509291E+01
0.1610795E+01  0.1290247E+00  0.1594410E+01
0.1539062E+01  0.1536458E+00  0.1528951E+01
0.1510772E+01  0.1982718E+00  0.1504441E+01
0.1541862E+01  0.2179813E+00  0.1534808E+01
0.1475030E+01  0.2178147E+00  0.1471083E+01
0.1539206E+01  0.2578835E+00  0.1532868E+01
0.1521085E+01  0.2465697E+00  0.1515433E+01
0.1496499E+01  0.2146241E+00  0.1491392E+01
0.1481433E+01  0.1870688E+00  0.1475845E+01
0.1586261E+01  0.1960616E+00  0.1576061E+01
0.1460896E+01  0.2899333E+00  0.1458745E+01
0.1542195E+01  0.2867649E+00  0.1535976E+01
0.1486080E+01  0.2754813E+00  0.1482584E+01
0.1536278E+01  0.3247610E+00  0.1530737E+01
0.1510131E+01  0.3295675E+00  0.1506004E+01
0.1455545E+01  0.2514402E+00  0.1453156E+01
0.1610995E+01  0.1909452E+00  0.1599505E+01
0.1564462E+01  0.2395252E+00  0.1556668E+01
0.1571524E+01  0.3026484E+00  0.1563751E+01
0.1613657E+01  0.2555806E+00  0.1603274E+01
0.1633998E+01  0.2714643E+00  0.1622163E+01
0.1534973E+01  0.3650914E+00  0.1529199E+01
0.1583157E+01  0.2286349E+00  0.1573983E+01
0.1586501E+01  0.1581416E+00  0.1574600E+01
0.1651985E+01  0.2274641E+00  0.1638784E+01
0.1619170E+01  0.2936434E+00  0.1608354E+01
0.1678889E+01  0.2641389E+00  0.1663546E+01
0.1642286E+01  0.2930521E+00  0.1629727E+01
0.1526415E+01  0.3446283E+00  0.1521282E+01
0.1662420E+01  0.3044259E+00  0.1648336E+01
0.1636786E+01  0.2469276E+00  0.1624883E+01
0.1588953E+01  0.3366240E+00  0.1580313E+01
0.1616427E+01  0.3314099E+00  0.1605948E+01
0.1598305E+01  0.3102698E+00  0.1588922E+01
0.1655410E+01  0.2614708E+00  0.1641906E+01
0.1487553E+01  0.3072167E+00  0.1484306E+01
0.1520126E+01  0.3036443E+00  0.1515265E+01
0.1477894E+01  0.2544664E+00  0.1474634E+01
0.1567847E+01  0.2133479E+00  0.1559179E+01
0.1663947E+01  0.3299725E+00  0.1650119E+01
0.1567022E+01  0.2696000E+00  0.1559444E+01
0.1678598E+01  0.3509559E+00  0.1663301E+01
0.1611933E+01  0.3827205E+00  0.1601250E+01
0.1640491E+01  0.3197373E+00  0.1628303E+01
0.1588015E+01  0.2526666E+00  0.1579074E+01
0.1708471E+01  0.3144917E+00  0.1690560E+01
0.1606944E+01  0.3564315E+00  0.1596877E+01
0.1604614E+01  0.2314093E+00  0.1594318E+01
0.1643491E+01  0.3631133E+00  0.1630877E+01
0.2000000E+01  0.5000000E+00  0.1960507E+01
0.1494727E+01  0.3621796E+00  0.1491200E+01
0.1701807E+01  0.3477237E+00  0.1684343E+01
0.1572156E+01  0.3701847E+00  0.1564360E+01
0.1688392E+01  0.3285111E+00  0.1672474E+01
0.1695932E+01  0.3904821E+00  0.1678903E+01
0.1636337E+01  0.3418163E+00  0.1624511E+01
0.1505941E+01  0.9448485E-01  0.1486946E+01
0.1423727E+01  0.1910920E+00  0.1420631E+01
0.1481447E+01  0.3359634E+00  0.1478727E+01
0.1441613E+01  0.3726133E+00  0.1440898E+01
0.1466699E+01  0.3599060E+00  0.1464709E+01
0.1476682E+01  0.4107296E+00  0.1474370E+01
0.1434448E+01  0.3273535E+00  0.1433960E+01
0.1464523E+01  0.3867258E+00  0.1462833E+01
0.1456903E+01  0.3373583E+00  0.1455445E+01
0.1454188E+01  0.3132491E+00  0.1452557E+01
0.1424069E+01  0.2919612E+00  0.1423475E+01
0.1490969E+01  0.3884111E+00  0.1487847E+01
0.1428051E+01  0.4202828E+00  0.1428298E+01
0.1513790E+01  0.3782958E+00  0.1509284E+01
0.1547789E+01  0.4092466E+00  0.1541542E+01
0.1535154E+01  0.3889763E+00  0.1529485E+01
0.1512699E+01  0.4170463E+00  0.1508596E+01
0.1441554E+01  0.3983607E+00  0.1441054E+01
0.1395941E+01  0.3853832E+00  0.1397598E+01
0.1420578E+01  0.3854393E+00  0.1420996E+01
0.1408336E+01  0.3518173E+00  0.1409155E+01
0.1549967E+01  0.3074339E+00  0.1543583E+01
0.1651639E+01  0.4114272E+00  0.1638358E+01
0.1668616E+01  0.3788978E+00  0.1654033E+01
0.1674624E+01  0.4027285E+00  0.1659679E+01
0.1706988E+01  0.4343785E+00  0.1689058E+01
0.1673984E+01  0.4357547E+00  0.1658812E+01
0.1695270E+01  0.4139894E+00  0.1678564E+01
0.1737273E+01  0.4034108E+00  0.1716260E+01
0.1645630E+01  0.3875965E+00  0.1632901E+01
0.1625874E+01  0.4052508E+00  0.1614443E+01
0.1627808E+01  0.4540126E+00  0.1616813E+01
0.1587158E+01  0.4136289E+00  0.1578456E+01
0.1633718E+01  0.4293591E+00  0.1622150E+01
0.1651607E+01  0.4466828E+00  0.1638589E+01
0.1605650E+01  0.4356658E+00  0.1595933E+01
0.1682168E+01  0.4808869E+00  0.1665890E+01
0.1671711E+01  0.4594749E+00  0.1656976E+01
0.1698428E+01  0.4596870E+00  0.1681366E+01
0.1646221E+01  0.4851828E+00  0.1633407E+01
0.1607747E+01  0.4151289E+00  0.1597659E+01
0.1584205E+01  0.4841185E+00  0.1575941E+01
0.1747573E+01  0.4622079E+00  0.1725459E+01
0.1568396E+01  0.4481495E+00  0.1561001E+01
0.1601760E+01  0.4629165E+00  0.1592572E+01
0.1723356E+01  0.4540167E+00  0.1703819E+01
0.1732897E+01  0.4294241E+00  0.1712086E+01
0.1722218E+01  0.4972746E+00  0.1702190E+01
0.1715121E+01  0.4754441E+00  0.1696040E+01
0.1584567E+01  0.4345797E+00  0.1576253E+01
0.1563465E+01  0.4258523E+00  0.1556519E+01
0.1534166E+01  0.4440258E+00  0.1528866E+01
0.1615090E+01  0.4918227E+00  0.1604828E+01
0.1717469E+01  0.4134541E+00  0.1698559E+01
0.1718488E+01  0.3909170E+00  0.1699185E+01
0.1741353E+01  0.3769080E+00  0.1720006E+01
0.1781199E+01  0.4241746E+00  0.1755570E+01
0.2000000E+01  0.2500000E+00  0.1960359E+01
0.1756308E+01  0.4199875E+00  0.1733440E+01
0.1762447E+01  0.3937207E+00  0.1739000E+01
0.1765097E+01  0.4438197E+00  0.1741053E+01
0.1807974E+01  0.4625425E+00  0.1778228E+01
0.1789176E+01  0.4471344E+00  0.1762061E+01
0.1514158E+01  0.1287364E+00  0.1502501E+01
0.1777674E+01  0.4803377E+00  0.1752243E+01
0.1811145E+01  0.4395021E+00  0.1782101E+01
0.1850404E+01  0.4566449E+00  0.1817030E+01
0.1748483E+01  0.3522599E+00  0.1726532E+01
0.1731235E+01  0.3304535E+00  0.1711176E+01
0.1777870E+01  0.3654441E+00  0.1753236E+01
0.1748149E+01  0.2821176E+00  0.1726306E+01
0.1732875E+01  0.3039003E+00  0.1712608E+01
0.1708314E+01  0.2807181E+00  0.1690657E+01
0.1767650E+01  0.3193756E+00  0.1744038E+01
0.1372661E+01  0.1704076E+00  0.1370129E+01
0.1411157E+01  0.2494459E+00  0.1410671E+01
0.1448000E+01  0.2246098E+00  0.1445325E+01
0.1360382E+01  0.2278583E+00  0.1361372E+01
0.1433680E+01  0.2431125E+00  0.1432173E+01
0.1388814E+01  0.2314916E+00  0.1388743E+01
0.1314549E+01  0.2124991E+00  0.1317008E+01
0.1404157E+01  0.2007613E+00  0.1402607E+01
0.1415035E+01  0.1072182E+00  0.1404551E+01
0.1520299E+01  0.1091515E+00  0.1505040E+01
0.1459010E+01  0.1690672E+00  0.1453439E+01
0.1436337E+01  0.2690050E+00  0.1435016E+01
0.1443480E+01  0.1263360E+00  0.1434905E+01
0.1625000E+01  0.0000000E+00  0.1594129E+01
0.1414954E+01  0.2197329E+00  0.1413468E+01
0.1335299E+01  0.2266424E+00  0.1337207E+01
0.1396801E+01  0.1612344E+00  0.1392601E+01
0.1792033E+01  0.3934232E+00  0.1765746E+01
0.1541310E+01  0.1264947E+00  0.1528377E+01
0.1483859E+01  0.1256971E+00  0.1472541E+01
0.1500341E+01  0.1139400E+00  0.1486860E+01
0.1498380E+01  0.1421255E+00  0.1488448E+01
0.1478242E+01  0.1468909E+00  0.1470104E+01
0.1453147E+01  0.1972183E+00  0.1449312E+01
0.1348833E+01  0.2067866E+00  0.1349696E+01
0.1368157E+01  0.2800764E+00  0.1369885E+01
0.1250000E+01  0.0000000E+00  0.1233398E+01
0.1496272E+01  0.2780308E-01  0.1471542E+01
0.1430228E+01  0.1622338E+00  0.1424769E+01
0.1544491E+01  0.1012427E+00  0.1526461E+01
0.1505524E+01  0.5428530E-01  0.1482673E+01
0.1576405E+01  0.1180891E+00  0.1560230E+01
0.1526885E+01  0.8834234E-01  0.1506023E+01
0.1558557E+01  0.6358195E-01  0.1534563E+01
0.1372206E+01  0.9428859E-01  0.1359842E+01
0.1414069E+01  0.8636887E-01  0.1399545E+01
0.1351230E+01  0.1581055E+00  0.1348746E+01
0.1371634E+01  0.2528708E+00  0.1372838E+01
0.1392978E+01  0.2694234E+00  0.1393514E+01
0.1321668E+01  0.2603105E+00  0.1325066E+01
0.1392566E+01  0.3027057E+00  0.1393569E+01
0.1345601E+01  0.2495441E+00  0.1347759E+01
0.1349996E+01  0.1827855E+00  0.1349461E+01
0.1475238E+01  0.9618066E-01  0.1458831E+01
0.1487372E+01  0.4556180E+00  0.1484889E+01
0.1432024E+01  0.3509343E+00  0.1431656E+01
0.1619231E+01  0.5383449E+00  0.1608285E+01
0.1532505E+01  0.4233173E+00  0.1527274E+01
0.1547332E+01  0.4788657E+00  0.1541523E+01
0.1627786E+01  0.4750493E+00  0.1616437E+01
0.1750658E+01  0.4911384E+00  0.1728061E+01
0.1783313E+01  0.5336292E+00  0.1756124E+01
0.1744147E+01  0.5299352E+00  0.1721198E+01
0.1772978E+01  0.5077787E+00  0.1747261E+01
0.1739682E+01  0.5092411E+00  0.1717497E+01
0.1715917E+01  0.5251974E+00  0.1696081E+01
0.1809547E+01  0.4999146E+00  0.1779269E+01
0.1486188E+01  0.5335558E+00  0.1483877E+01
0.1695320E+01  0.5058771E+00  0.1677980E+01
0.1793562E+01  0.5145404E+00  0.1765045E+01
0.1827482E+01  0.5355643E+00  0.1795579E+01
0.1805457E+01  0.5332234E+00  0.1775713E+01
0.1812320E+01  0.5734372E+00  0.1782294E+01
0.1794794E+01  0.5557356E+00  0.1766540E+01
0.1637325E+01  0.5533192E+00  0.1624888E+01
0.1761146E+01  0.5591762E+00  0.1736459E+01
0.1789115E+01  0.5788851E+00  0.1761241E+01
0.1693317E+01  0.6123782E+00  0.1676395E+01
0.1522396E+01  0.5359490E+00  0.1518119E+01
0.1814654E+01  0.6254783E+00  0.1784373E+01
0.1726166E+01  0.5505978E+00  0.1704911E+01
0.1691322E+01  0.5307786E+00  0.1674340E+01
0.1516987E+01  0.5143680E+00  0.1513169E+01
0.1661909E+01  0.5147686E+00  0.1647315E+01
0.1761865E+01  0.6508066E+00  0.1737331E+01
0.1692174E+01  0.5698207E+00  0.1675178E+01
0.1780214E+01  0.6037461E+00  0.1753727E+01
[...]
POINT_DATA    3280
SCALARS hauteur float
LOOKUP_TABLE DEFAULT
       2.1772292E-02
       8.4433352E-05
       2.3236167E-04
       2.1776202E-02
       1.1616439E-02
       1.1768290E-02
       2.7162383E-02
       4.0933617E-03
       1.5074101E-02
       2.5371511E-02
       2.5370627E-02
       2.2638357E-02
       2.2355934E-02
       2.2589325E-02
       2.4178145E-02
       3.7171211E-04
       2.2436718E-02
       2.4577830E-02
       1.5723346E-02
       2.0567477E-02
       2.3783995E-02
       2.3680574E-02
       2.5455772E-02
       2.4344077E-02
       2.4668604E-02
       2.4722779E-02
       2.3942841E-02
       2.1419543E-02
       2.6969710E-02
       2.4522822E-02
       2.6126528E-02
       2.5082152E-02
       2.5975864E-02
       2.6625242E-02
       2.0623223E-02
       2.3390675E-02
       2.3553087E-02
       2.1782721E-02
       2.0736392E-02
       2.4822750E-02
       2.2383720E-02
       1.9722507E-02
       1.9728311E-02
       2.1460042E-02
       1.8122610E-02
       2.0177326E-02
       2.5294012E-02
       1.9053413E-02
       2.0723021E-02
       2.3033292E-02
       2.1742143E-02
       2.2477360E-02
       1.9493686E-02
       2.6404740E-02
       2.5440263E-02
       2.6199784E-02
       2.2584391E-02
       1.9340015E-02
       2.3657219E-02
       1.8162557E-02
       2.1448639E-02
       2.0512448E-02
       2.2713948E-02
       1.6144736E-02
       2.1965349E-02
       2.1688878E-02
       2.0146050E-02
       3.7409029E-04
       2.6268369E-02
       1.6458758E-02
       2.3542651E-02
       1.7737190E-02
       1.6776551E-02
       2.0791681E-02
       1.1024007E-02
       2.5283042E-02
       2.6810248E-02
       2.8020824E-02
       2.7246213E-02
       2.7123268E-02
       2.8105535E-02
       2.7502561E-02
       2.7583101E-02
       2.7355518E-02
       2.7792817E-02
       2.6598151E-02
       2.8713632E-02
       2.5668997E-02
       2.4605590E-02
       2.4931397E-02
       2.6050228E-02
       2.8234256E-02
       2.9483437E-02
       2.8734740E-02
       2.8892533E-02
       2.4512742E-02
       1.9641932E-02
       1.8678400E-02
       1.8435490E-02
       1.6095824E-02
       1.8196169E-02
       1.7086462E-02
       1.3616851E-02
       2.0074201E-02
       2.0978180E-02
       2.1453196E-02
       2.2935373E-02
       2.0998184E-02
       1.9904141E-02
       2.2289336E-02
       1.7252665E-02
       1.8587593E-02
       1.6793690E-02
       2.0000525E-02
       2.1960012E-02
       2.3314758E-02
       1.2721495E-02
       2.3868447E-02
       2.2740055E-02
       1.4815669E-02
       1.3731283E-02
       1.4301574E-02
       1.5107701E-02
       2.3271572E-02
       2.4218709E-02
       2.5281801E-02
       2.1932532E-02
       1.5325321E-02
       1.4952001E-02
       1.3364127E-02
       9.8761070E-03
       2.2557863E-04
       1.2141295E-02
       1.1684427E-02
       1.1140150E-02
       6.2937728E-03
       8.5493255E-03
       1.8524938E-02
       1.0004199E-02
       7.0581332E-03
       3.5115876E-03
       1.2902938E-02
       1.4450469E-02
       1.0804636E-02
       1.3003926E-02
       1.4274569E-02
       1.6396180E-02
       1.1623024E-02
       2.4829789E-02
       2.7643620E-02
       2.6188658E-02
       2.8106751E-02
       2.7070692E-02
       2.7613249E-02
       2.8662886E-02
       2.6439465E-02
       1.7721969E-02
       1.5045284E-02
       2.3512483E-02
       2.7310726E-02
       2.0198432E-02
       1.5205403E-03
       2.6718731E-02
       2.8524682E-02
       2.3642993E-02
       9.4344136E-03
       1.7790983E-02
       1.8260304E-02
       1.6425988E-02
       1.9935994E-02
       2.1328638E-02
       2.5131082E-02
       2.7749878E-02
       2.8999569E-02
       8.3142890E-03
       5.0958573E-03
       2.3050234E-02
       1.2757206E-02
       7.1598679E-03
       1.5248295E-02
       9.5746011E-03
       7.0737484E-03
       1.4988499E-02
       1.3663885E-02
       2.4450067E-02
       2.8545237E-02
       2.8302696E-02
       2.9743627E-02
       2.8761609E-02
       2.8980018E-02
       2.6375151E-02
       1.3000314E-02
       2.7165949E-02
       2.8176748E-02
       2.1330817E-02
       2.5316981E-02
       2.5034651E-02
       2.1098597E-02
       1.2299034E-02
       8.3586509E-03
       1.1818344E-02
       9.6244344E-03
       1.2492939E-02
       1.4368695E-02
       5.7931180E-03
       2.7314300E-02
       1.6453662E-02
       7.2349511E-03
       4.5252574E-03
       6.2444342E-03
       6.1001381E-03
       7.5222344E-03
       2.0200176E-02
       1.0418708E-02
       7.7890883E-03
       1.6832435E-02
       2.6069960E-02
       5.8912703E-03
       1.3152499E-02
       1.6732506E-02
       2.6420260E-02
       1.8533090E-02
       1.0585542E-02
       1.6735384E-02
       8.9989433E-03
       2.4230662E-02
       1.8215992E-02
       1.1531277E-02
       2.3356135E-02
       1.7524955E-02
       1.2894365E-02
       1.2090452E-02
       1.4574546E-02
       1.4350066E-02
       5.2273966E-03
       7.1041879E-03
       4.0809858E-04
       1.1424418E-02
       3.2255345E-03
       8.9263581E-03
       1.0570586E-02
       1.7647762E-02
       1.4997242E-02
       7.8688114E-03
       5.1667680E-03
       5.2632490E-03
       7.0243144E-03
       8.3748910E-03
       8.4687242E-03
       1.0868665E-02
       2.0589664E-02
       2.6890469E-02
       1.7130934E-02
       1.8828859E-02
       2.1030355E-02
       2.2070200E-02
       6.9193702E-03
       9.9435474E-03
       6.5194740E-03
       2.9793587E-03
       2.6895255E-03
       3.9866983E-03
       1.1502537E-02
       1.1514390E-02
       3.0555077E-03
       1.6061355E-02
       5.7144590E-03
       1.4787726E-02
       4.1948241E-03
       9.3455549E-04
       1.0817552E-02
       1.8814820E-02
       1.7599815E-02
       1.9436754E-02
       9.1771318E-03
       1.7937958E-02
       2.2245595E-02
       2.1489383E-02
       2.5938435E-02
       2.4496355E-02
       2.1652390E-02
       2.5335988E-02
       1.2813044E-02
       6.4730123E-03
       2.1756867E-02
       9.6449714E-03
       2.0823784E-02
       7.1249587E-03
       2.8205170E-02
       2.8477538E-02
       2.9211886E-02
       2.9697612E-02
       2.9951259E-02
       2.6838404E-02
       2.6130984E-02
       2.7862540E-02
       2.5764251E-02
       2.6047111E-02
       2.2807810E-02
       2.5200183E-02
       1.9824927E-02
       2.4761242E-02
       2.4036951E-02
       7.3737432E-03
       4.9509962E-03
       3.9493320E-03
       1.0075187E-02
       1.8596687E-02
       4.4039727E-03
       6.6420173E-03
       2.0422396E-02
       2.3054069E-02
       6.4278247E-03
       1.5539056E-02
       6.9784937E-03
       1.4101118E-02
       1.0998649E-02
       1.2722134E-02
       1.2968897E-02
       6.8291603E-03
       3.5582891E-03
       1.2867529E-04
       8.7549536E-03
       1.9727091E-03
       1.1543993E-02
       8.3139893E-03
       1.8867772E-02
       4.1432427E-04
       4.6655590E-03
       1.0664826E-02
       9.3809217E-03
       1.6576906E-02
       1.4654051E-02
       3.6704799E-03
       2.1971458E-02
       1.7563242E-03
       1.3554886E-02
       2.4531896E-02
       1.5354334E-03
       7.6748759E-04
       1.6030884E-02
       1.5704988E-02
       1.7480816E-02
       1.7678933E-02
       8.7091690E-03
       1.8002070E-02
       1.6864261E-02
       1.7603538E-02
       1.9441213E-02
       1.6350440E-02
       1.1271201E-02
       1.4848048E-02
       1.6394550E-02
       5.4006413E-04
       4.8429533E-03
       4.9803437E-03
       7.2372411E-03
       4.1153443E-03
       4.1106216E-03
       1.9180674E-03
       1.8955137E-03
       1.2157440E-03
       1.7814259E-02
       1.9568322E-02
       1.6509202E-02
       1.3687520E-02
       1.7490698E-02
       1.1353776E-02
       5.4040451E-03
       9.7475947E-03
       5.9248743E-03
       4.8006492E-03
       3.4993100E-03
       5.0935857E-03
       6.1854859E-03
       2.7745080E-02
       3.0970631E-02
       2.9278024E-02
       2.9859626E-02
       3.0779191E-02
       2.9440962E-02
       3.0310974E-02
       3.1296550E-02
       3.0992451E-02
       3.2119717E-02
       3.0496298E-02
       3.1613540E-02
       3.2663515E-02
       3.2062855E-02
       3.1758726E-02
       3.1855197E-02
       3.0946865E-02
       2.9632686E-02
       2.9153458E-02
       2.9053407E-02
       2.8972337E-02
       2.9943536E-02
       3.0576536E-02
       3.0675481E-02
       2.7387515E-02
       2.4590029E-02
       2.7598057E-02
       2.6233370E-02
       2.4820695E-02
       2.9859429E-02
       3.0981678E-02
       3.0638460E-02
       3.0300963E-02
       3.0291469E-02
       3.0848261E-02
       3.2088200E-02
       3.1552464E-02
       3.0122231E-02
       3.1434605E-02
       3.1962338E-02
       3.2174042E-02
       3.1517591E-02
       3.0546258E-02
       3.0874327E-02
       3.3395351E-02
       3.1400329E-02
       3.3235957E-02
       3.2737546E-02
       3.2699658E-02
       3.2741442E-02
       3.3778539E-02
       3.3200045E-02
       3.3057325E-02
       3.2642142E-02
       3.3162855E-02
       3.4221436E-02
       3.3640265E-02
       3.3993714E-02
       3.2999294E-02
       3.5048006E-02
       3.2651475E-02
       3.4359457E-02
       3.1722834E-02
       3.3621620E-02
       3.4588434E-02
       3.5283907E-02
       3.5136915E-02
       3.6159451E-02
       3.5656350E-02
       3.5109981E-02
       3.4107893E-02
       3.2365993E-02
       3.3115230E-02
       3.5666737E-02
       3.5763646E-02
       3.5931736E-02
       3.6769453E-02
       3.6455932E-02
       3.4859606E-02
       3.6466284E-02
       3.1863110E-02
       3.2777633E-02
       3.6245958E-02
       3.6123712E-02
       3.5706731E-02
       3.6301413E-02
       3.6696258E-02
       3.1059337E-02
       3.2777173E-02
       3.7319911E-02
       3.2199191E-02
       3.3843548E-02
       3.6916725E-02
       3.7236399E-02
       3.1080327E-02
       3.3425455E-02
       3.4034621E-02
       3.6855237E-02
       3.7342970E-02
       3.7246458E-02
       3.8155668E-02
       3.7855747E-02
       3.1613688E-02
       3.1045069E-02
       3.1855334E-02
       2.9679219E-02
       3.1954287E-02
       3.0383502E-02
       3.0469953E-02
       3.0245457E-02
       3.7849390E-02
       3.8956203E-02
       2.9485324E-02
       3.7642670E-02
       3.8123441E-02
       3.7708832E-02
       3.8489935E-02
       2.8773233E-02
       2.9869625E-02
       2.9286559E-02
       2.8408070E-02
       2.8998275E-02
       2.9136918E-02
       3.7902332E-02
       3.7346289E-02
       3.8417432E-02
       3.7676652E-02
       2.8262704E-02
       2.7706151E-02
       3.6958458E-02
       3.8976646E-02
       3.8284341E-02
       3.6522997E-02
       2.7967110E-02
       3.8855854E-02
       3.7060230E-02
       3.6377267E-02
       2.8699881E-02
       3.8279200E-02
       3.8912786E-02
       3.7535935E-02
       3.9856356E-02
       3.7616677E-02
       3.9516716E-02
       3.9408390E-02
       3.9406132E-02
       3.9641545E-02
       3.9345002E-02
       3.8867328E-02
       3.8702620E-02
       4.0221200E-02
       3.9816128E-02
       4.0420694E-02
       3.9857009E-02
       4.0098325E-02
       2.7890962E-02
       5.4311281E-03
       3.4300656E-03
       1.3684725E-03
       2.4405807E-03
       1.4819938E-03
       2.1759051E-03
       1.9984998E-03
       2.9370615E-03
       3.3522130E-03
       2.8547323E-03
       3.9185946E-03
       1.9707013E-04
       3.4581544E-04
       1.7239607E-03
       1.9795959E-03
       1.2191125E-03
       6.6903672E-04
       2.0854403E-03
       4.5007397E-04
       4.5445637E-04
       1.3250785E-03
       8.1644848E-04
       4.6844254E-04
       7.5814066E-04
       2.0759922E-04
       2.7008069E-02
       1.8982658E-02
       1.7664668E-02
       2.0627284E-02
       1.8868511E-02
       1.9557760E-02
       2.0974985E-02
       2.5572043E-02
       2.3764479E-02
       2.4766646E-02
       2.5864291E-02
       2.3992963E-02
       2.4851544E-02
       2.2737664E-02
       2.5039793E-02
       2.5960576E-02
       2.5174000E-02
       2.6835933E-02
       2.7600781E-02
       2.6683385E-02
       2.5471817E-02
       2.3510723E-02
       2.4520220E-02
       2.3465469E-02
       2.4247193E-02
       2.5230658E-02
       2.4401224E-02
       2.3214611E-02
       2.4243098E-02
       2.3644322E-02
       2.4046088E-02
       2.1685129E-02
       2.4053549E-02
       2.1929644E-02
       2.5373434E-02
       2.3048234E-02
       2.5052166E-02
       2.6098717E-02
       2.2416075E-02
       2.2837448E-02
       2.3962159E-02
       2.6168865E-02
       2.7024589E-02
       2.6345333E-02
       2.5319660E-02
       2.7749328E-02
       2.5989735E-02
       2.6470304E-02
       2.5964966E-02
       2.4890583E-02
       2.6987248E-02
       2.6908785E-02
       2.8318018E-02
       2.7050398E-02
       2.7668876E-02
       2.9092902E-02
       2.8400789E-02
       2.9538487E-02
       9.6914018E-03
       1.2321322E-02
       1.4464466E-02
       1.5575165E-02
       1.4899453E-02
       1.2925376E-02
       4.8376939E-03
       1.1973720E-03
       5.1968509E-03
       2.3002889E-03
       1.5900887E-02
       2.0084538E-02
       1.2919576E-02
       1.1393725E-02
       1.8225934E-02
       1.8646209E-02
       1.6781047E-02
       1.4350973E-02
       1.4822909E-02
       1.6092079E-02
       1.6301648E-02
       1.8038346E-02
       1.2409029E-02
       1.0520845E-02
       1.2834963E-02
       1.2681318E-02
       1.0059553E-02
       1.1283011E-02
       1.2726392E-02
       6.6485697E-03
       6.5264190E-03
       9.1036313E-03
       6.3789262E-03
       8.1438380E-03
       8.1746940E-03
       1.3883404E-02
       6.2829166E-03
       8.5958372E-03
       4.7934325E-03
       2.4092006E-03
       2.4675743E-03
       1.4655338E-03
       2.0729103E-02
       1.9260079E-02
       1.8870138E-02
       6.2403066E-03
       7.2904168E-03
       7.9287526E-03
       5.4934731E-03
       5.7241999E-03
       4.0147683E-03
       2.7653264E-02
       2.6857087E-02
       2.8685545E-02
       2.6854770E-02
       2.8829662E-02
       2.5159056E-02
       3.0049886E-02
       2.4690556E-02
       3.1184994E-02
       2.9874420E-02
       2.6830522E-02
       2.8142548E-02
       1.6932548E-02
       3.0770102E-02
       2.1805429E-02
       2.2106374E-02
       1.0171150E-02
       2.0729440E-02
       3.1863505E-02
       1.4099721E-02
       1.1196231E-02
       1.4362004E-02
       1.4075499E-02
       3.0388509E-02
       3.1859274E-02
       2.4034739E-02
       2.2673410E-02
       3.1341939E-02
       3.3439275E-02
       3.3649653E-02
       3.1265914E-02
       3.3391002E-02
       3.5116603E-02
       3.4712608E-02
       3.7651567E-02
       3.6415021E-02
       3.8566650E-02
       3.8246004E-02
       3.8829346E-02
       3.8187761E-02
       3.8824558E-02
       3.9870247E-02
       3.9356657E-02
       3.9361081E-02
       3.9478406E-02
       3.6657885E-02
       3.7289351E-02
       3.5707000E-02
       3.6958803E-02
       3.9146174E-02
       3.9318143E-02
       3.8567469E-02
       3.8288966E-02
       3.8652779E-02
       4.0133262E-02
       4.1142773E-02
       2.9840277E-03
       4.5271082E-04
       9.6644711E-04
       2.8561516E-04
       2.1453546E-02
       2.2455550E-02
       1.9828637E-02
       2.1011271E-02
       2.1775556E-02
       2.6937973E-02
       2.8636320E-02
       2.8285354E-02
       2.2480102E-02
       2.1287091E-02
       2.0257233E-02
       2.6039624E-02
       2.5245819E-02
       2.2196967E-02
       2.8301094E-02
       3.0372186E-02
       1.8937975E-03
       9.3886826E-04
       2.9588125E-03
       1.2795233E-03
       1.7717548E-03
       4.9122288E-03
       3.9547017E-04
       1.6511306E-03
       1.6214833E-04
       3.3222777E-04
       3.9086913E-04
       6.0681565E-04
       2.9099581E-04
       7.7499466E-04
       1.8272603E-04
       7.5408260E-03
       9.2917049E-03
       2.4817820E-03
       3.6393745E-03
       1.8461968E-02
       1.8974383E-02
       2.0682580E-02
       2.0641675E-02
       2.1633891E-02
       2.2495994E-02
       2.3070026E-02
       1.1168630E-02
       1.0459069E-02
       1.4655883E-02
       1.5601359E-02
       5.4222729E-03
       1.2752042E-02
       1.3880721E-02
       3.2548725E-03
       1.2903027E-02
       1.5526719E-02
       1.7110531E-02
       1.7008835E-02
       1.8292058E-02
       1.6756938E-02
       7.9307506E-04
       1.8562606E-02
       1.4939413E-02
       1.8209277E-02
       1.3945652E-02
       1.4122780E-02
       1.3528007E-02
       6.7571054E-03
       1.0556457E-02
       8.3667274E-03
       9.5877956E-03
       8.1372438E-03
       3.6343131E-03
       1.4240682E-03
       1.7554020E-02
       1.6771101E-02
       1.9005368E-02
       1.0318229E-02
       1.0470860E-02
       8.9284949E-03
       1.2758272E-02
       1.1236043E-02
       1.0025762E-02
       1.4893428E-02
       4.9223789E-03
       1.4746891E-03
       9.9646814E-04
       2.2119870E-02
       1.7483994E-02
       1.1825848E-02
       1.3970312E-02
       1.1254333E-02
       1.6246101E-02
       1.8668153E-02
       1.7549211E-02
       3.2701763E-02
       3.4434424E-02
       3.4492484E-02
       3.4797020E-02
       3.4692016E-02
       3.5179443E-02
       3.4112443E-02
       3.4000769E-02
       3.4677390E-02
       3.4027395E-02
       3.7707615E-02
       3.8083694E-02
       4.2772498E-02
       3.7607025E-02
       3.6434182E-02
       4.0531915E-02
       3.9829598E-02
       4.0594517E-02
       3.9840924E-02
       3.8554653E-02
       4.1565616E-02
       3.3674680E-02
       4.1221290E-02
       4.2227819E-02
       3.6666826E-02
       3.2588003E-02
       4.2254527E-02
       4.1942291E-02
       4.0207079E-02
       4.0474652E-02
       4.0707577E-02
       3.3782803E-02
       4.1504358E-02
       3.6794582E-02
       4.1086708E-02
       3.5527379E-02
       4.1907168E-02
       4.0885514E-02
       4.1519546E-02
       4.1203889E-02
       4.1666590E-02
       4.0330448E-02
       4.2189207E-02
       3.8487201E-02
       4.1919829E-02
       3.8059184E-02
       3.7279531E-02
       4.1691641E-02
       4.2222212E-02
       3.8680072E-02
       3.7228295E-02
       1.7258401E-02
       4.2600453E-02
       1.5212499E-02
       4.2943603E-02
       3.8931272E-02
       4.2772300E-02
       3.5326495E-02
       3.4207955E-02
       4.2827049E-02
       4.3198371E-02
       4.3172684E-02
       4.3669528E-02
       4.2561106E-02
       4.2468252E-02
       3.8051522E-02
       3.6220942E-02
       3.7710974E-02
       3.5744777E-02
       3.5121833E-02
       4.0978459E-02
       3.6552279E-02
       3.7688421E-02
       3.4724083E-02
       3.5254492E-02
       3.6786960E-02
       4.4171244E-02
       3.9190020E-02
       4.1736830E-02
       3.6236043E-02
       4.1485581E-02
       3.6728590E-02
       3.6126192E-02
       3.5096290E-02
       3.4208191E-02
       3.5569619E-02
       3.5977360E-02
       3.6180728E-02
       3.5778494E-02
       3.5240247E-02
       3.5654519E-02
       3.4765379E-02
       3.5560993E-02
       3.4053372E-02
       3.3683412E-02
       3.4352518E-02
       3.3660077E-02
       3.4336779E-02
       3.4982415E-02
       3.4485634E-02
       3.3711993E-02
       3.2977717E-02
       3.2800785E-02
       3.2684020E-02
       3.1622169E-02
       3.3290851E-02
       3.3641706E-02
       3.7169185E-02
       3.9070992E-02
       3.8060661E-02
       3.8547040E-02
       3.9908948E-02
       4.0787047E-02
       4.0502451E-02
       4.0773398E-02
       4.0521096E-02
       4.0052036E-02
       4.0916239E-02
       4.0384960E-02
       4.1494615E-02
       4.0439421E-02
       4.1380696E-02
       4.1057843E-02
       4.1804502E-02
       4.0772861E-02
       4.0894478E-02
       4.0825671E-02
       3.9997420E-02
       4.1259387E-02
       4.0461707E-02
       4.0302439E-02
       4.1042175E-02
       4.1117326E-02