# vtk DataFile Version 3.0
# Solution du M1 TR
ASCII
DATASET UNSTRUCTURED_GRID
POINTS   3280  float
0.0000000E+00  0.0000000E+00  0.2181748E-01
0.2000000E+01  0.0000000E+00  0.1960217E+01
0.2000000E+01  0.1000000E+01  0.1960364E+01
0.0000000E+00  0.1000000E+01  0.2181934E-01
0.1000000E+01  0.0000000E+00  0.9916710E+00
0.1000000E+01  0.1000000E+01  0.9918231E+00
0.1500000E+01  0.5000000E+00  0.1497266E+01
0.1500000E+01  0.0000000E+00  0.1474207E+01
0.1723284E+01  0.3570951E+00  0.1704068E+01
0.1500000E+01  0.2500000E+00  0.1495469E+01
0.1515103E+01  0.2763186E+00  0.1510274E+01
0.1594866E+01  0.2826386E+00  0.1585730E+01
0.1562500E+01  0.1875000E+00  0.1553713E+01
0.1534357E+01  0.1819434E+00  0.1526362E+01
0.1561083E+01  0.3343258E+00  0.1554155E+01
0.1750000E+01  0.0000000E+00  0.1715490E+01
0.1503267E+01  0.1622339E+00  0.1495738E+01
0.1514910E+01  0.2261192E+00  0.1509289E+01
0.1610795E+01  0.1290247E+00  0.1594434E+01
0.1539062E+01  0.1536458E+00  0.1528955E+01
0.1510772E+01  0.1982718E+00  0.1504439E+01
0.1541862E+01  0.2179813E+00  0.1534809E+01
0.1475030E+01  0.2178147E+00  0.1471079E+01
0.1539206E+01  0.2578835E+00  0.1532872E+01
0.1521085E+01  0.2465697E+00  0.1515434E+01
0.1496499E+01  0.2146241E+00  0.1491388E+01
0.1481433E+01  0.1870688E+00  0.1475842E+01
0.1586261E+01  0.1960616E+00  0.1576072E+01
0.1460896E+01  0.2899333E+00  0.1458743E+01
0.1542195E+01  0.2867649E+00  0.1535983E+01
0.1486080E+01  0.2754813E+00  0.1482582E+01
0.1536278E+01  0.3247610E+00  0.1530744E+01
0.1510131E+01  0.3295675E+00  0.1506008E+01
0.1455545E+01  0.2514402E+00  0.1453152E+01
0.1610995E+01  0.1909452E+00  0.1599523E+01
0.1564462E+01  0.2395252E+00  0.1556674E+01
0.1571524E+01  0.3026484E+00  0.1563764E+01
0.1613657E+01  0.2555806E+00  0.1603295E+01
0.1633998E+01  0.2714643E+00  0.1622192E+01
0.1534973E+01  0.3650914E+00  0.1529210E+01
0.1583157E+01  0.2286349E+00  0.1573993E+01
0.1586501E+01  0.1581416E+00  0.1574610E+01
0.1651985E+01  0.2274641E+00  0.1638816E+01
0.1619170E+01  0.2936434E+00  0.1608380E+01
0.1678889E+01  0.2641389E+00  0.1663593E+01
0.1642286E+01  0.2930521E+00  0.1629762E+01
0.1526415E+01  0.3446283E+00  0.1521290E+01
0.1662420E+01  0.3044259E+00  0.1648378E+01
0.1636786E+01  0.2469276E+00  0.1624910E+01
0.1588953E+01  0.3366240E+00  0.1580331E+01
0.1616427E+01  0.3314099E+00  0.1605973E+01
0.1598305E+01  0.3102698E+00  0.1588942E+01
0.1655410E+01  0.2614708E+00  0.1641944E+01
0.1487553E+01  0.3072167E+00  0.1484307E+01
0.1520126E+01  0.3036443E+00  0.1515269E+01
0.1477894E+01  0.2544664E+00  0.1474631E+01
0.1567847E+01  0.2133479E+00  0.1559184E+01
0.1663947E+01  0.3299725E+00  0.1650159E+01
0.1567022E+01  0.2696000E+00  0.1559453E+01
0.1678598E+01  0.3509559E+00  0.1663347E+01
0.1611933E+01  0.3827205E+00  0.1601281E+01
0.1640491E+01  0.3197373E+00  0.1628335E+01
0.1588015E+01  0.2526666E+00  0.1579087E+01
0.1708471E+01  0.3144917E+00  0.1690616E+01
0.1606944E+01  0.3564315E+00  0.1596903E+01
0.1604614E+01  0.2314093E+00  0.1594334E+01
0.1643491E+01  0.3631133E+00  0.1630912E+01
0.2000000E+01  0.5000000E+00  0.1960507E+01
0.1494727E+01  0.3621796E+00  0.1491205E+01
0.1701807E+01  0.3477237E+00  0.1684397E+01
0.1572156E+01  0.3701847E+00  0.1564377E+01
0.1688392E+01  0.3285111E+00  0.1672523E+01
0.1695932E+01  0.3904821E+00  0.1678958E+01
0.1636337E+01  0.3418163E+00  0.1624543E+01
0.1505941E+01  0.9448485E-01  0.1486963E+01
0.1423727E+01  0.1910920E+00  0.1420626E+01
0.1481447E+01  0.3359634E+00  0.1478729E+01
0.1441613E+01  0.3726133E+00  0.1440898E+01
0.1466699E+01  0.3599060E+00  0.1464710E+01
0.1476682E+01  0.4107296E+00  0.1474373E+01
0.1434448E+01  0.3273535E+00  0.1433959E+01
0.1464523E+01  0.3867258E+00  0.1462834E+01
0.1456903E+01  0.3373583E+00  0.1455446E+01
0.1454188E+01  0.3132491E+00  0.1452556E+01
0.1424069E+01  0.2919612E+00  0.1423473E+01
0.1490969E+01  0.3884111E+00  0.1487851E+01
0.1428051E+01  0.4202828E+00  0.1428297E+01
0.1513790E+01  0.3782958E+00  0.1509291E+01
0.1547789E+01  0.4092466E+00  0.1541556E+01
0.1535154E+01  0.3889763E+00  0.1529496E+01
0.1512699E+01  0.4170463E+00  0.1508603E+01
0.1441554E+01  0.3983607E+00  0.1441054E+01
0.1395941E+01  0.3853832E+00  0.1397597E+01
0.1420578E+01  0.3854393E+00  0.1420995E+01
0.1408336E+01  0.3518173E+00  0.1409154E+01
0.1549967E+01  0.3074339E+00  0.1543591E+01
0.1651639E+01  0.4114272E+00  0.1638402E+01
0.1668616E+01  0.3788978E+00  0.1654077E+01
0.1674624E+01  0.4027285E+00  0.1659727E+01
0.1706988E+01  0.4343785E+00  0.1689123E+01
0.1673984E+01  0.4357547E+00  0.1658867E+01
0.1695270E+01  0.4139894E+00  0.1678620E+01
0.1737273E+01  0.4034108E+00  0.1716329E+01
0.1645630E+01  0.3875965E+00  0.1632940E+01
0.1625874E+01  0.4052508E+00  0.1614478E+01
0.1627808E+01  0.4540126E+00  0.1616850E+01
0.1587158E+01  0.4136289E+00  0.1578479E+01
0.1633718E+01  0.4293591E+00  0.1622188E+01
0.1651607E+01  0.4466828E+00  0.1638637E+01
0.1605650E+01  0.4356658E+00  0.1595963E+01
0.1682168E+01  0.4808869E+00  0.1665960E+01
0.1671711E+01  0.4594749E+00  0.1657035E+01
0.1698428E+01  0.4596870E+00  0.1681433E+01
0.1646221E+01  0.4851828E+00  0.1633461E+01
0.1607747E+01  0.4151289E+00  0.1597689E+01
0.1584205E+01  0.4841185E+00  0.1575973E+01
0.1747573E+01  0.4622079E+00  0.1725535E+01
0.1568396E+01  0.4481495E+00  0.1561024E+01
0.1601760E+01  0.4629165E+00  0.1592603E+01
0.1723356E+01  0.4540167E+00  0.1703891E+01
0.1732897E+01  0.4294241E+00  0.1712158E+01
0.1722218E+01  0.4972746E+00  0.1702272E+01
0.1715121E+01  0.4754441E+00  0.1696117E+01
0.1584567E+01  0.4345797E+00  0.1576278E+01
0.1563465E+01  0.4258523E+00  0.1556536E+01
0.1534166E+01  0.4440258E+00  0.1528879E+01
0.1615090E+01  0.4918227E+00  0.1604871E+01
0.1717469E+01  0.4134541E+00  0.1698623E+01
0.1718488E+01  0.3909170E+00  0.1699248E+01
0.1741353E+01  0.3769080E+00  0.1720072E+01
0.1781199E+01  0.4241746E+00  0.1755638E+01
0.2000000E+01  0.2500000E+00  0.1960359E+01
0.1756308E+01  0.4199875E+00  0.1733511E+01
0.1762447E+01  0.3937207E+00  0.1739069E+01
0.1765097E+01  0.4438197E+00  0.1741126E+01
0.1807974E+01  0.4625425E+00  0.1778281E+01
0.1789176E+01  0.4471344E+00  0.1762126E+01
0.1514158E+01  0.1287364E+00  0.1502508E+01
0.1777674E+01  0.4803377E+00  0.1752315E+01
0.1811145E+01  0.4395021E+00  0.1782158E+01
0.1850404E+01  0.4566449E+00  0.1817059E+01
0.1748483E+01  0.3522599E+00  0.1726597E+01
0.1731235E+01  0.3304535E+00  0.1711238E+01
0.1777870E+01  0.3654441E+00  0.1753301E+01
0.1748149E+01  0.2821176E+00  0.1726371E+01
0.1732875E+01  0.3039003E+00  0.1712670E+01
0.1708314E+01  0.2807181E+00  0.1690713E+01
0.1767650E+01  0.3193756E+00  0.1744102E+01
0.1372661E+01  0.1704076E+00  0.1370126E+01
0.1411157E+01  0.2494459E+00  0.1410667E+01
0.1448000E+01  0.2246098E+00  0.1445320E+01
0.1360382E+01  0.2278583E+00  0.1361369E+01
0.1433680E+01  0.2431125E+00  0.1432168E+01
0.1388814E+01  0.2314916E+00  0.1388739E+01
0.1314549E+01  0.2124991E+00  0.1317009E+01
0.1404157E+01  0.2007613E+00  0.1402603E+01
0.1415035E+01  0.1072182E+00  0.1404552E+01
0.1520299E+01  0.1091515E+00  0.1505054E+01
0.1459010E+01  0.1690672E+00  0.1453435E+01
0.1436337E+01  0.2690050E+00  0.1435012E+01
0.1443480E+01  0.1263360E+00  0.1434905E+01
0.1625000E+01  0.0000000E+00  0.1594140E+01
0.1414954E+01  0.2197329E+00  0.1413463E+01
0.1335299E+01  0.2266424E+00  0.1337206E+01
0.1396801E+01  0.1612344E+00  0.1392599E+01
0.1792033E+01  0.3934232E+00  0.1765811E+01
0.1541310E+01  0.1264947E+00  0.1528388E+01
0.1483859E+01  0.1256971E+00  0.1472545E+01
0.1500341E+01  0.1139400E+00  0.1486869E+01
0.1498380E+01  0.1421255E+00  0.1488451E+01
0.1478242E+01  0.1468909E+00  0.1470104E+01
0.1453147E+01  0.1972183E+00  0.1449307E+01
0.1348833E+01  0.2067866E+00  0.1349694E+01
0.1368157E+01  0.2800764E+00  0.1369883E+01
0.1250000E+01  0.0000000E+00  0.1233392E+01
0.1496272E+01  0.2780308E-01  0.1471557E+01
0.1430228E+01  0.1622338E+00  0.1424766E+01
0.1544491E+01  0.1012427E+00  0.1526480E+01
0.1505524E+01  0.5428530E-01  0.1482692E+01
0.1576405E+01  0.1180891E+00  0.1560248E+01
0.1526885E+01  0.8834234E-01  0.1506045E+01
0.1558557E+01  0.6358195E-01  0.1534588E+01
0.1372206E+01  0.9428859E-01  0.1359843E+01
0.1414069E+01  0.8636887E-01  0.1399549E+01
0.1351230E+01  0.1581055E+00  0.1348744E+01
0.1371634E+01  0.2528708E+00  0.1372835E+01
0.1392978E+01  0.2694234E+00  0.1393511E+01
0.1321668E+01  0.2603105E+00  0.1325067E+01
0.1392566E+01  0.3027057E+00  0.1393567E+01
0.1345601E+01  0.2495441E+00  0.1347758E+01
0.1349996E+01  0.1827855E+00  0.1349459E+01
0.1475238E+01  0.9618066E-01  0.1458842E+01
0.1487372E+01  0.4556180E+00  0.1484892E+01
0.1432024E+01  0.3509343E+00  0.1431656E+01
0.1619231E+01  0.5383449E+00  0.1608340E+01
0.1532505E+01  0.4233173E+00  0.1527285E+01
0.1547332E+01  0.4788657E+00  0.1541541E+01
0.1627786E+01  0.4750493E+00  0.1616481E+01
0.1750658E+01  0.4911384E+00  0.1728140E+01
0.1783313E+01  0.5336292E+00  0.1756192E+01
0.1744147E+01  0.5299352E+00  0.1721282E+01
0.1772978E+01  0.5077787E+00  0.1747334E+01
0.1739682E+01  0.5092411E+00  0.1717580E+01
0.1715917E+01  0.5251974E+00  0.1696167E+01
0.1809547E+01  0.4999146E+00  0.1779318E+01
0.1486188E+01  0.5335558E+00  0.1483879E+01
0.1695320E+01  0.5058771E+00  0.1678060E+01
0.1793562E+01  0.5145404E+00  0.1765105E+01
0.1827482E+01  0.5355643E+00  0.1795617E+01
0.1805457E+01  0.5332234E+00  0.1775766E+01
0.1812320E+01  0.5734372E+00  0.1782346E+01
0.1794794E+01  0.5557356E+00  0.1766602E+01
0.1637325E+01  0.5533192E+00  0.1624953E+01
0.1761146E+01  0.5591762E+00  0.1736538E+01
0.1789115E+01  0.5788851E+00  0.1761306E+01
0.1693317E+01  0.6123782E+00  0.1676466E+01
0.1522396E+01  0.5359490E+00  0.1518131E+01
0.1814654E+01  0.6254783E+00  0.1784420E+01
0.1726166E+01  0.5505978E+00  0.1704998E+01
0.1691322E+01  0.5307786E+00  0.1674422E+01
0.1516987E+01  0.5143680E+00  0.1513177E+01
0.1661909E+01  0.5147686E+00  0.1647388E+01
0.1761865E+01  0.6508066E+00  0.1737400E+01
0.1692174E+01  0.5698207E+00  0.1675259E+01
0.1780214E+01  0.6037461E+00  0.1753797E+01
[...]
POINT_DATA    3280
SCALARS hauteur float
LOOKUP_TABLE DEFAULT
       2.1817476E-02
       8.3510572E-05
       2.3099357E-04
       2.1819341E-02
       1.1604404E-02
       1.1756516E-02
       2.7166005E-02
       4.1074312E-03
       1.5134795E-02
       2.5368961E-02
       2.5371946E-02
       2.2655247E-02
       2.2359402E-02
       2.2589787E-02
       2.4189508E-02
       3.7365991E-04
       2.2435605E-02
       2.4576032E-02
       1.5747479E-02
       2.0571779E-02
       2.3781898E-02
       2.3681649E-02
       2.5451003E-02
       2.4347750E-02
       2.4668723E-02
       2.4719024E-02
       2.3939015E-02
       2.1429695E-02
       2.6967462E-02
       2.4529087E-02
       2.6125092E-02
       2.5089042E-02
       2.5979940E-02
       2.6620892E-02
       2.0640685E-02
       2.3396669E-02
       2.3566033E-02
       2.1803555E-02
       2.0765507E-02
       2.4833950E-02
       2.2393589E-02
       1.9733205E-02
       1.9760610E-02
       2.1485434E-02
       1.8170156E-02
       2.0211668E-02
       2.5301801E-02
       1.9095953E-02
       2.0749940E-02
       2.3051130E-02
       2.1767330E-02
       2.2497098E-02
       1.9531637E-02
       2.6405700E-02
       2.5444381E-02
       2.6196310E-02
       2.2589754E-02
       1.9379591E-02
       2.3666740E-02
       1.8208553E-02
       2.1479259E-02
       2.0545170E-02
       2.2727027E-02
       1.6201328E-02
       2.1990658E-02
       2.1705399E-02
       2.0181809E-02
       3.7354524E-04
       2.6272791E-02
       1.6513385E-02
       2.3560090E-02
       1.7785961E-02
       1.6830838E-02
       2.0823142E-02
       1.1040666E-02
       2.5278281E-02
       2.6812021E-02
       2.8021319E-02
       2.7248041E-02
       2.7126042E-02
       2.8104658E-02
       2.7504128E-02
       2.7583441E-02
       2.7354878E-02
       2.7790375E-02
       2.6602240E-02
       2.8712600E-02
       2.5676422E-02
       2.4619997E-02
       2.4943065E-02
       2.6057120E-02
       2.8234299E-02
       2.9482435E-02
       2.8734014E-02
       2.8891672E-02
       2.4521112E-02
       1.9685905E-02
       1.8722270E-02
       1.8483606E-02
       1.6161231E-02
       1.8251237E-02
       1.7143186E-02
       1.3685513E-02
       2.0112683E-02
       2.1013273E-02
       2.1490578E-02
       2.2958543E-02
       2.1035926E-02
       1.9952037E-02
       2.2319478E-02
       1.7323491E-02
       1.8647036E-02
       1.6860814E-02
       2.0055109E-02
       2.1989376E-02
       2.3346403E-02
       1.2797716E-02
       2.3890952E-02
       2.2771336E-02
       1.4887844E-02
       1.3802935E-02
       1.4383807E-02
       1.5184771E-02
       2.3295899E-02
       2.4236378E-02
       2.5294872E-02
       2.1975365E-02
       1.5389317E-02
       1.5014926E-02
       1.3430467E-02
       9.9440593E-03
       2.2549970E-04
       1.2212601E-02
       1.1753320E-02
       1.1213437E-02
       6.3465606E-03
       8.6151290E-03
       1.8531959E-02
       1.0076376E-02
       7.1151222E-03
       3.5404068E-03
       1.2967899E-02
       1.4512575E-02
       1.0870372E-02
       1.3069310E-02
       1.4337007E-02
       1.6452238E-02
       1.1687270E-02
       2.4827137E-02
       2.7639329E-02
       2.6183380E-02
       2.8104281E-02
       2.7065965E-02
       2.7609345E-02
       2.8663584E-02
       2.6434828E-02
       1.7723734E-02
       1.5059232E-02
       2.3508900E-02
       2.7307015E-02
       2.0198307E-02
       1.5317531E-03
       2.6713798E-02
       2.8523743E-02
       2.3640212E-02
       9.4993610E-03
       1.7801121E-02
       1.8264353E-02
       1.6435223E-02
       1.9938759E-02
       2.1328046E-02
       2.5125909E-02
       2.7747880E-02
       2.8997550E-02
       8.3083519E-03
       5.1115495E-03
       2.3047454E-02
       1.2776540E-02
       7.1781198E-03
       1.5266061E-02
       9.5959467E-03
       7.0987425E-03
       1.4990126E-02
       1.3667519E-02
       2.4448855E-02
       2.8542706E-02
       2.8299358E-02
       2.9744631E-02
       2.8759382E-02
       2.8979025E-02
       2.6373262E-02
       1.3010609E-02
       2.7168752E-02
       2.8176750E-02
       2.1386130E-02
       2.5328184E-02
       2.5052290E-02
       2.1142077E-02
       1.2378296E-02
       8.4268582E-03
       1.1902304E-02
       9.6981583E-03
       1.2576155E-02
       1.4454232E-02
       5.8417931E-03
       2.7316360E-02
       1.6532874E-02
       7.2948401E-03
       4.5626291E-03
       6.2971063E-03
       6.1521767E-03
       7.5845755E-03
       2.0264877E-02
       1.0498123E-02
       7.8537915E-03
       1.6903098E-02
       2.6081782E-02
       5.9389383E-03
       1.3239832E-02
       1.6814316E-02
       2.6429110E-02
       1.8606553E-02
       1.0654191E-02
       1.6816323E-02
       9.0695595E-03
       2.4256304E-02
       1.8293263E-02
       1.1612127E-02
       2.3390973E-02
       1.7570992E-02
       1.2974282E-02
       1.2164708E-02
       1.4631535E-02
       1.4398246E-02
       5.2659966E-03
       7.1371283E-03
       4.0626472E-04
       1.1466200E-02
       3.2482510E-03
       8.9857910E-03
       1.0646219E-02
       1.7698383E-02
       1.5058313E-02
       7.9289207E-03
       5.2098705E-03
       5.3070019E-03
       7.0795005E-03
       8.4349189E-03
       8.5271841E-03
       1.0933091E-02
       2.0592522E-02
       2.6887105E-02
       1.7147962E-02
       1.8838671E-02
       2.1035969E-02
       2.2069229E-02
       6.9490366E-03
       9.9688207E-03
       6.5458414E-03
       2.9955189E-03
       2.7090275E-03
       4.0072673E-03
       1.1529634E-02
       1.1549974E-02
       3.0781425E-03
       1.6093434E-02
       5.7465564E-03
       1.4818682E-02
       4.2200805E-03
       9.4151238E-04
       1.0859622E-02
       1.8837013E-02
       1.7622464E-02
       1.9452227E-02
       9.1915224E-03
       1.7941321E-02
       2.2245434E-02
       2.1488120E-02
       2.5939561E-02
       2.4496385E-02
       2.1653968E-02
       2.5332079E-02
       1.2818186E-02
       6.4751120E-03
       2.1755421E-02
       9.6547755E-03
       2.0823421E-02
       7.1396948E-03
       2.8202240E-02
       2.8475761E-02
       2.9210658E-02
       2.9697015E-02
       2.9951237E-02
       2.6842386E-02
       2.6138659E-02
       2.7863078E-02
       2.5775677E-02
       2.6057541E-02
       2.2847538E-02
       2.5218144E-02
       1.9892631E-02
       2.4778616E-02
       2.4061196E-02
       7.4334873E-03
       4.9927638E-03
       3.9813950E-03
       1.0153028E-02
       1.8663539E-02
       4.4377067E-03
       6.6970459E-03
       2.0481695E-02
       2.3093753E-02
       6.4667491E-03
       1.5602332E-02
       7.0260966E-03
       1.4174063E-02
       1.1059931E-02
       1.2777851E-02
       1.3034991E-02
       6.8804710E-03
       3.5812730E-03
       1.2943726E-04
       8.8066612E-03
       1.9849565E-03
       1.1592657E-02
       8.3775467E-03
       1.8918530E-02
       4.1459577E-04
       4.7039303E-03
       1.0718088E-02
       9.4251138E-03
       1.6629946E-02
       1.4736250E-02
       3.6871420E-03
       2.2019153E-02
       1.7665596E-03
       1.3595135E-02
       2.4557342E-02
       1.5437709E-03
       7.7034232E-04
       1.6078879E-02
       1.5744850E-02
       1.7536344E-02
       1.7739600E-02
       8.7445484E-03
       1.8036325E-02
       1.6894993E-02
       1.7643302E-02
       1.9474551E-02
       1.6384561E-02
       1.1309315E-02
       1.4881785E-02
       1.6450156E-02
       5.4261577E-04
       4.8839929E-03
       5.0201783E-03
       7.2908854E-03
       4.1391583E-03
       4.1296182E-03
       1.9305499E-03
       1.9099410E-03
       1.2250834E-03
       1.7852471E-02
       1.9594895E-02
       1.6512384E-02
       1.3694451E-02
       1.7492208E-02
       1.1357523E-02
       5.4127557E-03
       9.7542743E-03
       5.9299554E-03
       4.8129099E-03
       3.5157266E-03
       5.1121048E-03
       6.2071697E-03
       2.7741267E-02
       3.0969958E-02
       2.9276558E-02
       2.9859562E-02
       3.0781306E-02
       2.9440324E-02
       3.0312632E-02
       3.1301937E-02
       3.0996021E-02
       3.2125452E-02
       3.0499819E-02
       3.1618709E-02
       3.2672450E-02
       3.2069772E-02
       3.1766917E-02
       3.1862666E-02
       3.0952641E-02
       2.9634854E-02
       2.9153785E-02
       2.9058235E-02
       2.8975045E-02
       2.9947674E-02
       3.0584372E-02
       3.0681989E-02
       2.7390228E-02
       2.4594176E-02
       2.7599001E-02
       2.6232861E-02
       2.4823407E-02
       2.9859058E-02
       3.0983210E-02
       3.0639722E-02
       3.0301081E-02
       3.0291098E-02
       3.0848836E-02
       3.2090164E-02
       3.1554815E-02
       3.0119707E-02
       3.1434806E-02
       3.1961706E-02
       3.2178339E-02
       3.1520961E-02
       3.0544889E-02
       3.0871588E-02
       3.3400970E-02
       3.1404174E-02
       3.3243947E-02
       3.2742174E-02
       3.2705979E-02
       3.2749349E-02
       3.3789737E-02
       3.3210172E-02
       3.3068088E-02
       3.2644521E-02
       3.3169642E-02
       3.4231413E-02
       3.3648731E-02
       3.4004320E-02
       3.2996808E-02
       3.5061074E-02
       3.2650852E-02
       3.4371866E-02
       3.1716067E-02
       3.3625503E-02
       3.4600071E-02
       3.5294969E-02
       3.5149031E-02
       3.6172544E-02
       3.5669660E-02
       3.5123936E-02
       3.4120805E-02
       3.2361787E-02
       3.3117598E-02
       3.5679167E-02
       3.5774182E-02
       3.5943527E-02
       3.6781863E-02
       3.6468589E-02
       3.4873196E-02
       3.6479818E-02
       3.1859465E-02
       3.2771505E-02
       3.6257621E-02
       3.6133714E-02
       3.5720509E-02
       3.6314992E-02
       3.6709505E-02
       3.1052522E-02
       3.2772505E-02
       3.7332486E-02
       3.2191858E-02
       3.3843028E-02
       3.6929693E-02
       3.7249123E-02
       3.1070058E-02
       3.3423699E-02
       3.4036643E-02
       3.6868451E-02
       3.7354430E-02
       3.7258811E-02
       3.8165594E-02
       3.7865731E-02
       3.1604625E-02
       3.1036556E-02
       3.1845609E-02
       2.9672230E-02
       3.1945115E-02
       3.0375688E-02
       3.0464790E-02
       3.0235812E-02
       3.7860811E-02
       3.8959875E-02
       2.9482219E-02
       3.7654270E-02
       3.8134520E-02
       3.7715427E-02
       3.8497363E-02
       2.8770917E-02
       2.9863861E-02
       2.9282247E-02
       2.8405648E-02
       2.8993598E-02
       2.9129182E-02
       3.7913839E-02
       3.7358678E-02
       3.8427007E-02
       3.7685797E-02
       2.8261645E-02
       2.7707196E-02
       3.6970557E-02
       3.8982056E-02
       3.8290249E-02
       3.6533809E-02
       2.7965968E-02
       3.8853523E-02
       3.7071210E-02
       3.6390060E-02
       2.8694946E-02
       3.8281737E-02
       3.8913555E-02
       3.7535361E-02
       3.9851978E-02
       3.7620020E-02
       3.9512107E-02
       3.9407727E-02
       3.9407423E-02
       3.9643721E-02
       3.9348482E-02
       3.8874532E-02
       3.8711561E-02
       4.0216355E-02
       3.9814171E-02
       4.0411039E-02
       3.9856584E-02
       4.0096257E-02
       2.7891486E-02
       5.4767723E-03
       3.4576335E-03
       1.3767578E-03
       2.4588659E-03
       1.4919713E-03
       2.1912054E-03
       2.0130173E-03
       2.9607316E-03
       3.3799269E-03
       2.8775042E-03
       3.9510631E-03
       1.9635449E-04
       3.4600326E-04
       1.7364331E-03
       1.9946336E-03
       1.2272233E-03
       6.7194536E-04
       2.1010396E-03
       4.5165755E-04
       4.5536563E-04
       1.3342456E-03
       8.2095377E-04
       4.7064475E-04
       7.6259099E-04
       2.0710709E-04
       2.7010829E-02
       1.9053357E-02
       1.7737211E-02
       2.0685072E-02
       1.8929059E-02
       1.9618951E-02
       2.1022602E-02
       2.5588088E-02
       2.3797005E-02
       2.4784705E-02
       2.5875037E-02
       2.4020291E-02
       2.4872268E-02
       2.2773673E-02
       2.5056546E-02
       2.5969536E-02
       2.5187683E-02
       2.6840097E-02
       2.7600692E-02
       2.6687938E-02
       2.5483726E-02
       2.3535517E-02
       2.4538838E-02
       2.3486365E-02
       2.4266125E-02
       2.5243554E-02
       2.4418205E-02
       2.3234254E-02
       2.4259794E-02
       2.3663744E-02
       2.4060249E-02
       2.1712175E-02
       2.4069365E-02
       2.1948020E-02
       2.5385548E-02
       2.3065793E-02
       2.5065497E-02
       2.6107802E-02
       2.2429496E-02
       2.2852468E-02
       2.3974753E-02
       2.6176465E-02
       2.7032069E-02
       2.6354294E-02
       2.5331330E-02
       2.7751564E-02
       2.6000360E-02
       2.6480099E-02
       2.5975336E-02
       2.4902000E-02
       2.6993340E-02
       2.6913571E-02
       2.8313517E-02
       2.7053247E-02
       2.7669085E-02
       2.9089150E-02
       2.8398100E-02
       2.9529859E-02
       9.7671337E-03
       1.2406358E-02
       1.4551184E-02
       1.5660773E-02
       1.4976050E-02
       1.2971594E-02
       4.8714173E-03
       1.2045806E-03
       5.2257377E-03
       2.3159838E-03
       1.5970681E-02
       2.0121562E-02
       1.2956174E-02
       1.1431152E-02
       1.8269784E-02
       1.8683705E-02
       1.6830924E-02
       1.4408421E-02
       1.4881878E-02
       1.6140842E-02
       1.6340920E-02
       1.8068032E-02
       1.2460036E-02
       1.0588695E-02
       1.2901292E-02
       1.2746445E-02
       1.0121621E-02
       1.1348643E-02
       1.2786237E-02
       6.7043054E-03
       6.5772167E-03
       9.1685494E-03
       6.4319032E-03
       8.2066661E-03
       8.2370775E-03
       1.3948180E-02
       6.3323384E-03
       8.6537805E-03
       4.8155869E-03
       2.4248895E-03
       2.4857145E-03
       1.4769709E-03
       2.0751960E-02
       1.9260476E-02
       1.8870792E-02
       6.2487441E-03
       7.3009126E-03
       7.9350188E-03
       5.5048897E-03
       5.7378407E-03
       4.0310506E-03
       2.7652467E-02
       2.6861417E-02
       2.8693217E-02
       2.6860598E-02
       2.8835969E-02
       2.5165814E-02
       3.0058246E-02
       2.4695962E-02
       3.1194951E-02
       2.9883750E-02
       2.6837495E-02
       2.8151317E-02
       1.6934500E-02
       3.0780846E-02
       2.1809203E-02
       2.2111185E-02
       1.0162926E-02
       2.0734090E-02
       3.1873569E-02
       1.4098658E-02
       1.1196554E-02
       1.4361802E-02
       1.4075511E-02
       3.0398684E-02
       3.1870669E-02
       2.4036076E-02
       2.2674083E-02
       3.1339987E-02
       3.3448754E-02
       3.3661436E-02
       3.1261126E-02
       3.3391517E-02
       3.5122569E-02
       3.4720112E-02
       3.7663467E-02
       3.6426386E-02
       3.8574970E-02
       3.8244911E-02
       3.8818058E-02
       3.8182487E-02
       3.8818580E-02
       3.9855876E-02
       3.9345092E-02
       3.9353770E-02
       3.9459395E-02
       3.6645240E-02
       3.7284337E-02
       3.5712520E-02
       3.6966071E-02
       3.9152253E-02
       3.9323613E-02
       3.8576822E-02
       3.8299587E-02
       3.8662168E-02
       4.0123759E-02
       4.1126998E-02
       3.0067952E-03
       4.5313313E-04
       9.7151004E-04
       2.8478501E-04
       2.1506471E-02
       2.2500462E-02
       1.9877207E-02
       2.1049868E-02
       2.1822205E-02
       2.6942428E-02
       2.8629484E-02
       2.8280951E-02
       2.2513511E-02
       2.1326109E-02
       2.0281475E-02
       2.6047523E-02
       2.5258581E-02
       2.2207999E-02
       2.8296086E-02
       3.0360784E-02
       1.9054867E-03
       9.4400934E-04
       2.9760372E-03
       1.2855599E-03
       1.7813189E-03
       4.9373988E-03
       3.9698205E-04
       1.6604685E-03
       1.6307206E-04
       3.3412560E-04
       3.9103924E-04
       6.0741404E-04
       2.9266469E-04
       7.7935473E-04
       1.8303933E-04
       7.5776807E-03
       9.3296345E-03
       2.4984873E-03
       3.6676797E-03
       1.8508216E-02
       1.9012888E-02
       2.0714499E-02
       2.0669642E-02
       2.1665027E-02
       2.2521071E-02
       2.3094497E-02
       1.1207117E-02
       1.0495190E-02
       1.4692149E-02
       1.5631211E-02
       5.4478675E-03
       1.2789354E-02
       1.3915595E-02
       3.2719382E-03
       1.2939700E-02
       1.5557935E-02
       1.7138303E-02
       1.7032783E-02
       1.8319480E-02
       1.6783525E-02
       7.9606793E-04
       1.8585784E-02
       1.4968809E-02
       1.8234509E-02
       1.3978804E-02
       1.4151935E-02
       1.3562571E-02
       6.7938123E-03
       1.0597431E-02
       8.4087384E-03
       9.6254754E-03
       8.1800382E-03
       3.6569798E-03
       1.4313742E-03
       1.7573487E-02
       1.6793417E-02
       1.9024569E-02
       1.0386050E-02
       1.0538523E-02
       8.9915796E-03
       1.2825514E-02
       1.1303385E-02
       1.0089875E-02
       1.4955007E-02
       4.9611786E-03
       1.4860776E-03
       1.0039888E-03
       2.2122495E-02
       1.7485728E-02
       1.1825181E-02
       1.3970813E-02
       1.1252109E-02
       1.6247275E-02
       1.8670014E-02
       1.7551521E-02
       3.2713234E-02
       3.4437258E-02
       3.4495231E-02
       3.4802661E-02
       3.4695667E-02
       3.5185592E-02
       3.4116981E-02
       3.4007334E-02
       3.4686486E-02
       3.4035574E-02
       3.7719517E-02
       3.8073416E-02
       4.2711951E-02
       3.7549602E-02
       3.6426929E-02
       4.0494820E-02
       3.9802861E-02
       4.0562259E-02
       3.9809302E-02
       3.8534989E-02
       4.1518318E-02
       3.3659473E-02
       4.1183522E-02
       4.2174244E-02
       3.6649090E-02
       3.2599251E-02
       4.2206368E-02
       4.1901758E-02
       4.0186436E-02
       4.0457332E-02
       4.0683089E-02
       3.3744696E-02
       4.1477368E-02
       3.6794758E-02
       4.1063158E-02
       3.5518390E-02
       4.1858450E-02
       4.0868294E-02
       4.1483796E-02
       4.1174679E-02
       4.1633857E-02
       4.0304386E-02
       4.2152582E-02
       3.8462554E-02
       4.1886588E-02
       3.8032226E-02
       3.7269226E-02
       4.1665137E-02
       4.2181070E-02
       3.8664641E-02
       3.7205187E-02
       1.7206302E-02
       4.2547881E-02
       1.5176267E-02
       4.2886489E-02
       3.8900299E-02
       4.2724056E-02
       3.5322085E-02
       3.4201566E-02
       4.2775800E-02
       4.3144178E-02
       4.3116994E-02
       4.3604139E-02
       4.2512133E-02
       4.2424226E-02
       3.8018156E-02
       3.6219505E-02
       3.7690341E-02
       3.5731106E-02
       3.5104635E-02
       4.0947491E-02
       3.6519829E-02
       3.7672940E-02
       3.4712327E-02
       3.5264886E-02
       3.6760077E-02
       4.4096279E-02
       3.9164955E-02
       4.1694405E-02
       3.6243021E-02
       4.1442219E-02
       3.6732596E-02
       3.6129120E-02
       3.5099398E-02
       3.4215728E-02
       3.5577853E-02
       3.5989996E-02
       3.6190181E-02
       3.5789968E-02
       3.5253440E-02
       3.5668247E-02
       3.4777355E-02
       3.5574895E-02
       3.4064184E-02
       3.3696289E-02
       3.4365566E-02
       3.3672099E-02
       3.4350292E-02
       3.4996312E-02
       3.4499258E-02
       3.3724863E-02
       3.2989998E-02
       3.2813143E-02
       3.2696052E-02
       3.1633272E-02
       3.3302707E-02
       3.3654730E-02
       3.7178528E-02
       3.9078076E-02
       3.8072075E-02
       3.8556564E-02
       3.9898373E-02
       4.0775678E-02
       4.0495208E-02
       4.0763421E-02
       4.0514167E-02
       4.0050236E-02
       4.0904037E-02
       4.0379712E-02
       4.1472846E-02
       4.0432336E-02
       4.1361059E-02
       4.1043267E-02
       4.1777430E-02
       4.0762117E-02
       4.0878068E-02
       4.0812680E-02
       3.9990249E-02
       4.1239461E-02
       4.0451569E-02
       4.0285874E-02
       4.1026081E-02
       4.1100951E-02