# vtk DataFile Version 3.0
# Solution du M1 TR
ASCII
DATASET UNSTRUCTURED_GRID
POINTS   3280  float
0.0000000E+00  0.0000000E+00  0.3435197E-02
0.2000000E+01  0.0000000E+00  0.1960133E+01
0.2000000E+01  0.1000000E+01  0.1960133E+01
0.0000000E+00  0.1000000E+01  0.3777225E-02
0.1000000E+01  0.0000000E+00  0.9800683E+00
0.1000000E+01  0.1000000E+01  0.9800684E+00
0.1500000E+01  0.5000000E+00  0.1477877E+01
0.1500000E+01  0.0000000E+00  0.1470101E+01
0.1723284E+01  0.3570951E+00  0.1696710E+01
0.1500000E+01  0.2500000E+00  0.1477877E+01
0.1515103E+01  0.2763186E+00  0.1492679E+01
0.1594866E+01  0.2826386E+00  0.1570852E+01
0.1562500E+01  0.1875000E+00  0.1539128E+01
0.1534357E+01  0.1819434E+00  0.1511542E+01
0.1561083E+01  0.3343258E+00  0.1537743E+01
0.1750000E+01  0.0000000E+00  0.1715117E+01
0.1503267E+01  0.1622339E+00  0.1481061E+01
0.1514910E+01  0.2261192E+00  0.1492490E+01
0.1610795E+01  0.1290247E+00  0.1585793E+01
0.1539062E+01  0.1536458E+00  0.1516097E+01
0.1510772E+01  0.1982718E+00  0.1488433E+01
0.1541862E+01  0.2179813E+00  0.1518904E+01
0.1475030E+01  0.2178147E+00  0.1453405E+01
0.1539206E+01  0.2578835E+00  0.1516301E+01
0.1521085E+01  0.2465697E+00  0.1498542E+01
0.1496499E+01  0.2146241E+00  0.1474446E+01
0.1481433E+01  0.1870688E+00  0.1459675E+01
0.1586261E+01  0.1960616E+00  0.1562412E+01
0.1460896E+01  0.2899333E+00  0.1439553E+01
0.1542195E+01  0.2867649E+00  0.1519231E+01
0.1486080E+01  0.2754813E+00  0.1464234E+01
0.1536278E+01  0.3247610E+00  0.1513432E+01
0.1510131E+01  0.3295675E+00  0.1487806E+01
0.1455545E+01  0.2514402E+00  0.1434308E+01
0.1610995E+01  0.1909452E+00  0.1586656E+01
0.1564462E+01  0.2395252E+00  0.1541054E+01
0.1571524E+01  0.3026484E+00  0.1547975E+01
0.1613657E+01  0.2555806E+00  0.1589269E+01
0.1633998E+01  0.2714643E+00  0.1609204E+01
0.1534973E+01  0.3650914E+00  0.1512153E+01
0.1583157E+01  0.2286349E+00  0.1559376E+01
0.1586501E+01  0.1581416E+00  0.1562573E+01
0.1651985E+01  0.2274641E+00  0.1626833E+01
0.1619170E+01  0.2936434E+00  0.1594671E+01
0.1678889E+01  0.2641389E+00  0.1653200E+01
0.1642286E+01  0.2930521E+00  0.1617327E+01
0.1526415E+01  0.3446283E+00  0.1503765E+01
0.1662420E+01  0.3044259E+00  0.1637060E+01
0.1636786E+01  0.2469276E+00  0.1611937E+01
0.1588953E+01  0.3366240E+00  0.1565057E+01
0.1616427E+01  0.3314099E+00  0.1591983E+01
0.1598305E+01  0.3102698E+00  0.1574222E+01
0.1655410E+01  0.2614708E+00  0.1630190E+01
0.1487553E+01  0.3072167E+00  0.1465678E+01
0.1520126E+01  0.3036443E+00  0.1497602E+01
0.1477894E+01  0.2544664E+00  0.1456212E+01
0.1567847E+01  0.2133479E+00  0.1544371E+01
0.1663947E+01  0.3299725E+00  0.1638556E+01
0.1567022E+01  0.2696000E+00  0.1543564E+01
0.1678598E+01  0.3509559E+00  0.1652916E+01
0.1611933E+01  0.3827205E+00  0.1587579E+01
0.1640491E+01  0.3197373E+00  0.1615568E+01
0.1588015E+01  0.2526666E+00  0.1564138E+01
0.1708471E+01  0.3144917E+00  0.1682192E+01
0.1606944E+01  0.3564315E+00  0.1582689E+01
0.1604614E+01  0.2314093E+00  0.1580406E+01
0.1643491E+01  0.3631133E+00  0.1618508E+01
0.2000000E+01  0.5000000E+00  0.1960135E+01
0.1494727E+01  0.3621796E+00  0.1472709E+01
0.1701807E+01  0.3477237E+00  0.1675661E+01
0.1572156E+01  0.3701847E+00  0.1548595E+01
0.1688392E+01  0.3285111E+00  0.1662514E+01
0.1695932E+01  0.3904821E+00  0.1669904E+01
0.1636337E+01  0.3418163E+00  0.1611497E+01
0.1505941E+01  0.9448485E-01  0.1478010E+01
0.1423727E+01  0.1910920E+00  0.1403120E+01
0.1481447E+01  0.3359634E+00  0.1459694E+01
0.1441613E+01  0.3726133E+00  0.1420654E+01
0.1466699E+01  0.3599060E+00  0.1445240E+01
0.1476682E+01  0.4107296E+00  0.1455024E+01
0.1434448E+01  0.3273535E+00  0.1413631E+01
0.1464523E+01  0.3867258E+00  0.1443107E+01
0.1456903E+01  0.3373583E+00  0.1435639E+01
0.1454188E+01  0.3132491E+00  0.1432979E+01
0.1424069E+01  0.2919612E+00  0.1403460E+01
0.1490969E+01  0.3884111E+00  0.1469026E+01
0.1428051E+01  0.4202828E+00  0.1407362E+01
0.1513790E+01  0.3782958E+00  0.1491392E+01
0.1547789E+01  0.4092466E+00  0.1524714E+01
0.1535154E+01  0.3889763E+00  0.1512331E+01
0.1512699E+01  0.4170463E+00  0.1490323E+01
0.1441554E+01  0.3983607E+00  0.1420597E+01
0.1395941E+01  0.3853832E+00  0.1375892E+01
0.1420578E+01  0.3854393E+00  0.1400038E+01
0.1408336E+01  0.3518173E+00  0.1388040E+01
0.1549967E+01  0.3074339E+00  0.1526848E+01
0.1651639E+01  0.4114272E+00  0.1626493E+01
0.1668616E+01  0.3788978E+00  0.1643132E+01
0.1674624E+01  0.4027285E+00  0.1649021E+01
0.1706988E+01  0.4343785E+00  0.1680739E+01
0.1673984E+01  0.4357547E+00  0.1648393E+01
0.1695270E+01  0.4139894E+00  0.1669254E+01
0.1737273E+01  0.4034108E+00  0.1710420E+01
0.1645630E+01  0.3875965E+00  0.1620604E+01
0.1625874E+01  0.4052508E+00  0.1601242E+01
0.1627808E+01  0.4540126E+00  0.1603137E+01
0.1587158E+01  0.4136289E+00  0.1563298E+01
0.1633718E+01  0.4293591E+00  0.1608929E+01
0.1651607E+01  0.4466828E+00  0.1626462E+01
0.1605650E+01  0.4356658E+00  0.1581421E+01
0.1682168E+01  0.4808869E+00  0.1656414E+01
0.1671711E+01  0.4594749E+00  0.1646166E+01
0.1698428E+01  0.4596870E+00  0.1672349E+01
0.1646221E+01  0.4851828E+00  0.1621184E+01
0.1607747E+01  0.4151289E+00  0.1583477E+01
0.1584205E+01  0.4841185E+00  0.1560403E+01
0.1747573E+01  0.4622079E+00  0.1720515E+01
0.1568396E+01  0.4481495E+00  0.1544910E+01
0.1601760E+01  0.4629165E+00  0.1577609E+01
0.1723356E+01  0.4540167E+00  0.1696781E+01
0.1732897E+01  0.4294241E+00  0.1706132E+01
0.1722218E+01  0.4972746E+00  0.1695666E+01
0.1715121E+01  0.4754441E+00  0.1688710E+01
0.1584567E+01  0.4345797E+00  0.1560759E+01
0.1563465E+01  0.4258523E+00  0.1540077E+01
0.1534166E+01  0.4440258E+00  0.1511362E+01
0.1615090E+01  0.4918227E+00  0.1590673E+01
0.1717469E+01  0.4134541E+00  0.1691011E+01
0.1718488E+01  0.3909170E+00  0.1692010E+01
0.1741353E+01  0.3769080E+00  0.1714419E+01
0.1781199E+01  0.4241746E+00  0.1753468E+01
0.2000000E+01  0.2500000E+00  0.1960133E+01
0.1756308E+01  0.4199875E+00  0.1729076E+01
0.1762447E+01  0.3937207E+00  0.1735092E+01
0.1765097E+01  0.4438197E+00  0.1737689E+01
0.1807974E+01  0.4625425E+00  0.1779681E+01
0.1789176E+01  0.4471344E+00  0.1761283E+01
0.1514158E+01  0.1287364E+00  0.1491364E+01
0.1777674E+01  0.4803377E+00  0.1750014E+01
0.1811145E+01  0.4395021E+00  0.1782794E+01
0.1850404E+01  0.4566449E+00  0.1820957E+01
0.1748483E+01  0.3522599E+00  0.1721406E+01
0.1731235E+01  0.3304535E+00  0.1704503E+01
0.1777870E+01  0.3654441E+00  0.1750205E+01
0.1748149E+01  0.2821176E+00  0.1721079E+01
0.1732875E+01  0.3039003E+00  0.1706110E+01
0.1708314E+01  0.2807181E+00  0.1682039E+01
0.1767650E+01  0.3193756E+00  0.1740189E+01
0.1372661E+01  0.1704076E+00  0.1353049E+01
0.1411157E+01  0.2494459E+00  0.1390805E+01
0.1448000E+01  0.2246098E+00  0.1426914E+01
0.1360382E+01  0.2278583E+00  0.1341042E+01
0.1433680E+01  0.2431125E+00  0.1412879E+01
0.1388814E+01  0.2314916E+00  0.1368907E+01
0.1314549E+01  0.2124991E+00  0.1296122E+01
0.1404157E+01  0.2007613E+00  0.1383944E+01
0.1415035E+01  0.1072182E+00  0.1392770E+01
0.1520299E+01  0.1091515E+00  0.1495965E+01
0.1459010E+01  0.1690672E+00  0.1437685E+01
0.1436337E+01  0.2690050E+00  0.1415483E+01
0.1443480E+01  0.1263360E+00  0.1422020E+01
0.1625000E+01  0.0000000E+00  0.1592609E+01
0.1414954E+01  0.2197329E+00  0.1394526E+01
0.1335299E+01  0.2266424E+00  0.1316460E+01
0.1396801E+01  0.1612344E+00  0.1376684E+01
0.1792033E+01  0.3934232E+00  0.1764083E+01
0.1541310E+01  0.1264947E+00  0.1517854E+01
0.1483859E+01  0.1256971E+00  0.1461303E+01
0.1500341E+01  0.1139400E+00  0.1476861E+01
0.1498380E+01  0.1421255E+00  0.1476109E+01
0.1478242E+01  0.1468909E+00  0.1456437E+01
0.1453147E+01  0.1972183E+00  0.1431957E+01
0.1348833E+01  0.2067866E+00  0.1329723E+01
0.1368157E+01  0.2800764E+00  0.1348662E+01
0.1250000E+01  0.0000000E+00  0.1225085E+01
0.1496272E+01  0.2780308E-01  0.1466464E+01
0.1430228E+01  0.1622338E+00  0.1409447E+01
0.1544491E+01  0.1012427E+00  0.1518457E+01
0.1505524E+01  0.5428530E-01  0.1475740E+01
0.1576405E+01  0.1180891E+00  0.1551483E+01
0.1526885E+01  0.8834234E-01  0.1497781E+01
0.1558557E+01  0.6358195E-01  0.1528046E+01
0.1372206E+01  0.9428859E-01  0.1347447E+01
0.1414069E+01  0.8636887E-01  0.1387698E+01
0.1351230E+01  0.1581055E+00  0.1332018E+01
0.1371634E+01  0.2528708E+00  0.1352070E+01
0.1392978E+01  0.2694234E+00  0.1372988E+01
0.1321668E+01  0.2603105E+00  0.1303100E+01
0.1392566E+01  0.3027057E+00  0.1372585E+01
0.1345601E+01  0.2495441E+00  0.1326556E+01
0.1349996E+01  0.1827855E+00  0.1330857E+01
0.1475238E+01  0.9618066E-01  0.1448530E+01
0.1487372E+01  0.4556180E+00  0.1465501E+01
0.1432024E+01  0.3509343E+00  0.1411256E+01
0.1619231E+01  0.5383449E+00  0.1594731E+01
0.1532505E+01  0.4233173E+00  0.1509734E+01
0.1547332E+01  0.4788657E+00  0.1524266E+01
0.1627786E+01  0.4750493E+00  0.1603116E+01
0.1750658E+01  0.4911384E+00  0.1723539E+01
0.1783313E+01  0.5336292E+00  0.1755537E+01
0.1744147E+01  0.5299352E+00  0.1717157E+01
0.1772978E+01  0.5077787E+00  0.1745411E+01
0.1739682E+01  0.5092411E+00  0.1712781E+01
0.1715917E+01  0.5251974E+00  0.1689490E+01
0.1809547E+01  0.4999146E+00  0.1781196E+01
0.1486188E+01  0.5335558E+00  0.1464340E+01
0.1695320E+01  0.5058771E+00  0.1669304E+01
0.1793562E+01  0.5145404E+00  0.1765572E+01
0.1827482E+01  0.5355643E+00  0.1798674E+01
0.1805457E+01  0.5332234E+00  0.1777211E+01
0.1812320E+01  0.5734372E+00  0.1783938E+01
0.1794794E+01  0.5557356E+00  0.1766780E+01
0.1637325E+01  0.5533192E+00  0.1612465E+01
0.1761146E+01  0.5591762E+00  0.1733816E+01
0.1789115E+01  0.5788851E+00  0.1761223E+01
0.1693317E+01  0.6123782E+00  0.1667340E+01
0.1522396E+01  0.5359490E+00  0.1499827E+01
0.1814654E+01  0.6254783E+00  0.1786202E+01
0.1726166E+01  0.5505978E+00  0.1699535E+01
0.1691322E+01  0.5307786E+00  0.1665385E+01
0.1516987E+01  0.5143680E+00  0.1494526E+01
0.1661909E+01  0.5147686E+00  0.1636559E+01
0.1761865E+01  0.6508066E+00  0.1734521E+01
0.1692174E+01  0.5698207E+00  0.1666220E+01
0.1780214E+01  0.6037461E+00  0.1752502E+01
[...]
POINT_DATA    3280
SCALARS hauteur float
LOOKUP_TABLE DEFAULT
       3.4351969E-03
       9.9999999E-09
       9.9999999E-09
       3.7772252E-03
       1.7360925E-06
       1.7791138E-06
       7.7773139E-03
       9.7906380E-07
       7.7772687E-03
       7.7773005E-03
       7.7773126E-03
       7.7773125E-03
       7.7741273E-03
       7.7694200E-03
       7.7773139E-03
       2.5607342E-07
       7.7585899E-03
       7.7772116E-03
       7.1058824E-03
       7.7130171E-03
       7.7758695E-03
       7.7769172E-03
       7.7770954E-03
       7.7772990E-03
       7.7772842E-03
       7.7770604E-03
       7.7728101E-03
       7.7700708E-03
       7.7773135E-03
       7.7773133E-03
       7.7773132E-03
       7.7773139E-03
       7.7773139E-03
       7.7773013E-03
       7.7740829E-03
       7.7772183E-03
       7.7773137E-03
       7.7773036E-03
       7.7773131E-03
       7.7773139E-03
       7.7766417E-03
       7.6962231E-03
       7.7772449E-03
       7.7773137E-03
       7.7773122E-03
       7.7773137E-03
       7.7773139E-03
       7.7773137E-03
       7.7772997E-03
       7.7773139E-03
       7.7773139E-03
       7.7773138E-03
       7.7773114E-03
       7.7773138E-03
       7.7773138E-03
       7.7773070E-03
       7.7762704E-03
       7.7773138E-03
       7.7773095E-03
       7.7773131E-03
       7.7773139E-03
       7.7773139E-03
       7.7772759E-03
       7.7772913E-03
       7.7773139E-03
       7.7770085E-03
       7.7773139E-03
       1.6394609E-06
       7.7773139E-03
       7.7773012E-03
       7.7773139E-03
       7.7773120E-03
       7.7773113E-03
       7.7773139E-03
       2.0875105E-03
       7.7725258E-03
       7.7773139E-03
       7.7773139E-03
       7.7773139E-03
       7.7773139E-03
       7.7773139E-03
       7.7773139E-03
       7.7773139E-03
       7.7773139E-03
       7.7773138E-03
       7.7773139E-03
       7.7773139E-03
       7.7773139E-03
       7.7773139E-03
       7.7773139E-03
       7.7773139E-03
       7.7773139E-03
       7.7773139E-03
       7.7773139E-03
       7.7773139E-03
       7.7773139E-03
       7.7773139E-03
       7.7773137E-03
       7.7773138E-03
       7.7773112E-03
       7.7773138E-03
       7.7773134E-03
       7.7772473E-03
       7.7773139E-03
       7.7773139E-03
       7.7773139E-03
       7.7773139E-03
       7.7773139E-03
       7.7773139E-03
       7.7773139E-03
       7.7773131E-03
       7.7773138E-03
       7.7773129E-03
       7.7773139E-03
       7.7773139E-03
       7.7773139E-03
       7.7771737E-03
       7.7773139E-03
       7.7773139E-03
       7.7773016E-03
       7.7772644E-03
       7.7772921E-03
       7.7773008E-03
       7.7773139E-03
       7.7773139E-03
       7.7773139E-03
       7.7773139E-03
       7.7773075E-03
       7.7772926E-03
       7.7770905E-03
       7.7740788E-03
       2.3088634E-07
       7.7769587E-03
       7.7766746E-03
       7.7766978E-03
       7.7460037E-03
       7.7718538E-03
       7.3875875E-03
       7.7754815E-03
       7.7513911E-03
       7.4382029E-03
       7.7767645E-03
       7.7771157E-03
       7.7745029E-03
       7.7769405E-03
       7.7771203E-03
       7.7773016E-03
       7.7747474E-03
       7.7495317E-03
       7.7772934E-03
       7.7771211E-03
       7.7771756E-03
       7.7772938E-03
       7.7772124E-03
       7.7771532E-03
       7.7763245E-03
       5.9409337E-03
       5.9707852E-03
       7.7583813E-03
       7.7773127E-03
       7.3140946E-03
       1.1736345E-06
       7.7769775E-03
       7.7772273E-03
       7.7253621E-03
       7.7721850E-03
       7.2674634E-03
       7.0216668E-03
       6.4274201E-03
       7.5974713E-03
       7.6609703E-03
       7.7760439E-03
       7.7767295E-03
       7.7773134E-03
       2.0768974E-06
       1.8241191E-05
       7.7277269E-03
       4.7529423E-03
       2.2653479E-04
       6.5012190E-03
       1.3322885E-03
       5.5661050E-04
       2.5932502E-03
       1.8169519E-03
       7.7228495E-03
       7.7773033E-03
       7.7773107E-03
       7.7773127E-03
       7.7773138E-03
       7.7773019E-03
       7.7709254E-03
       2.6985369E-03
       7.7773139E-03
       7.7773139E-03
       7.7773139E-03
       7.7773139E-03
       7.7773139E-03
       7.7773139E-03
       7.7771026E-03
       7.7718087E-03
       7.7771149E-03
       7.7752084E-03
       7.7771382E-03
       7.7772948E-03
       7.7197833E-03
       7.7773139E-03
       7.7773123E-03
       7.7623356E-03
       7.6204022E-03
       7.7426091E-03
       7.7442165E-03
       7.7624254E-03
       7.7773139E-03
       7.7758651E-03
       7.7709087E-03
       7.7773131E-03
       7.7773139E-03
       7.7210346E-03
       7.7772056E-03
       7.7773126E-03
       7.7773139E-03
       7.7773138E-03
       7.7761183E-03
       7.7773124E-03
       7.7743790E-03
       7.7773139E-03
       7.7773136E-03
       7.7770194E-03
       7.7773139E-03
       7.7773137E-03
       7.7772314E-03
       7.7771289E-03
       7.7772888E-03
       7.7772790E-03
       7.6317747E-03
       7.7153737E-03
       5.2722607E-07
       7.7755092E-03
       7.1212880E-03
       7.7703405E-03
       7.7764193E-03
       7.7773120E-03
       7.7772195E-03
       7.7574432E-03
       7.6262921E-03
       7.6410670E-03
       7.7415818E-03
       7.7608606E-03
       7.7508027E-03
       7.7728536E-03
       7.6895100E-03
       7.7755130E-03
       7.2692072E-03
       7.5823700E-03
       7.7499459E-03
       7.5163713E-03
       9.9492386E-04
       2.0046182E-03
       5.0517068E-04
       6.1599939E-06
       3.4535773E-05
       6.4410385E-05
       3.4122152E-03
       5.4034933E-03
       1.7302008E-04
       7.6035058E-03
       1.0002567E-03
       7.2428182E-03
       2.3238207E-04
       1.2814716E-06
       5.7597037E-03
       7.7577278E-03
       7.6726642E-03
       7.7186919E-03
       5.6419437E-04
       6.6073696E-03
       7.4371415E-03
       7.6145435E-03
       7.7578059E-03
       7.7061806E-03
       7.0404039E-03
       7.7685945E-03
       1.4881166E-03
       4.2921461E-07
       7.5461973E-03
       4.1142248E-04
       7.3253585E-03
       8.8462858E-05
       7.7773137E-03
       7.7773139E-03
       7.7773139E-03
       7.7773139E-03
       7.7773139E-03
       7.7773139E-03
       7.7773139E-03
       7.7773139E-03
       7.7773139E-03
       7.7773139E-03
       7.7773139E-03
       7.7773139E-03
       7.7773139E-03
       7.7773139E-03
       7.7773139E-03
       7.7617185E-03
       7.6800267E-03
       7.4972034E-03
       7.7763839E-03
       7.7773138E-03
       7.5363207E-03
       7.7540596E-03
       7.7773139E-03
       7.7773139E-03
       7.6845680E-03
       7.7773057E-03
       7.7388004E-03
       7.7772944E-03
       7.7758349E-03
       7.7770304E-03
       7.7771598E-03
       7.7396381E-03
       7.2056415E-03
       5.2705811E-07
       7.7636341E-03
       5.9294313E-03
       7.7756901E-03
       7.7692502E-03
       7.7773139E-03
       3.9901904E-07
       7.6564747E-03
       7.7747713E-03
       7.7650769E-03
       7.7773123E-03
       7.7772949E-03
       6.5551004E-07
       7.7773139E-03
       5.6942965E-03
       7.7771115E-03
       7.7773139E-03
       4.9568751E-03
       1.3318913E-03
       7.7773110E-03
       7.7772974E-03
       7.7773134E-03
       7.7773136E-03
       7.7362933E-03
       7.7773032E-03
       7.7762229E-03
       7.7773128E-03
       7.7773119E-03
       7.7772068E-03
       7.7752610E-03
       7.7759700E-03
       7.7772998E-03
       8.3218575E-04
       7.6513791E-03
       7.5503327E-03
       7.7377162E-03
       1.3955354E-04
       7.9586659E-06
       1.3270497E-06
       6.6911940E-06
       2.5040488E-06
       7.7740244E-03
       7.7757713E-03
       5.6196552E-03
       2.6369512E-03
       5.6180901E-03
       5.9278113E-04
       5.7731964E-07
       2.2285856E-04
       3.3665550E-07
       2.7348944E-06
       1.5051006E-06
       2.3795186E-05
       1.3077302E-04
       7.7773124E-03
       7.7773139E-03
       7.7773139E-03
       7.7773138E-03
       7.7773139E-03
       7.7773130E-03
       7.7773138E-03
       7.7773138E-03
       7.7773139E-03
       7.7773139E-03
       7.7773127E-03
       7.7773139E-03
       7.7773139E-03
       7.7773139E-03
       7.7773121E-03
       7.7773137E-03
       7.7773106E-03
       7.7772956E-03
       7.7773011E-03
       7.7762179E-03
       7.7769378E-03
       7.7772662E-03
       7.7771789E-03
       7.7772696E-03
       7.7701487E-03
       7.6213075E-03
       7.7753816E-03
       7.7674509E-03
       7.6743011E-03
       7.7773139E-03
       7.7773139E-03
       7.7773139E-03
       7.7773139E-03
       7.7773139E-03
       7.7773139E-03
       7.7773139E-03
       7.7773139E-03
       7.7773139E-03
       7.7773139E-03
       7.7773139E-03
       7.7773139E-03
       7.7773139E-03
       7.7773139E-03
       7.7773139E-03
       7.7773139E-03
       7.7773139E-03
       7.7773139E-03
       7.7773139E-03
       7.7773139E-03
       7.7773139E-03
       7.7773139E-03
       7.7773139E-03
       7.7773139E-03
       7.7773139E-03
       7.7773139E-03
       7.7773139E-03
       7.7773139E-03
       7.7773139E-03
       7.7773139E-03
       7.7773139E-03
       7.7773139E-03
       7.7773139E-03
       7.7773139E-03
       7.7773139E-03
       7.7773139E-03
       7.7773139E-03
       7.7773139E-03
       7.7773139E-03
       7.7773139E-03
       7.7773139E-03
       7.7773139E-03
       7.7773139E-03
       7.7773139E-03
       7.7773139E-03
       7.7773139E-03
       7.7773139E-03
       7.7773139E-03
       7.7773139E-03
       7.7773139E-03
       7.7773139E-03
       7.7773139E-03
       7.7773139E-03
       7.7773139E-03
       7.7773139E-03
       7.7773139E-03
       7.7773139E-03
       7.7773139E-03
       7.7773139E-03
       7.7773139E-03
       7.7773139E-03
       7.7773139E-03
       7.7773139E-03
       7.7773139E-03
       7.7773139E-03
       7.7773139E-03
       7.7773139E-03
       7.7773139E-03
       7.7773139E-03
       7.7773139E-03
       7.7773139E-03
       7.7773139E-03
       7.7773139E-03
       7.7773139E-03
       7.7773139E-03
       7.7773139E-03
       7.7773139E-03
       7.7773139E-03
       7.7773139E-03
       7.7773139E-03
       7.7773139E-03
       7.7773139E-03
       7.7773139E-03
       7.7773139E-03
       7.7773139E-03
       7.7773139E-03
       7.7773139E-03
       7.7773139E-03
       7.7773139E-03
       7.7773139E-03
       7.7773139E-03
       7.7773139E-03
       7.7773139E-03
       7.7773139E-03
       7.7773139E-03
       7.7773139E-03
       7.7773139E-03
       7.7773139E-03
       7.7773139E-03
       7.7773139E-03
       7.7773139E-03
       7.7773139E-03
       7.7773139E-03
       7.7773139E-03
       7.7773139E-03
       7.7773139E-03
       7.7773139E-03
       7.7773139E-03
       7.7773139E-03
       7.7773139E-03
       7.7773139E-03
       7.7773139E-03
       7.7773139E-03
       7.7773139E-03
       7.7773139E-03
       7.7773139E-03
       7.7773139E-03
       7.7773139E-03
       7.7773139E-03
       7.7773139E-03
       7.7773139E-03
       7.7773139E-03
       7.7773139E-03
       7.7773139E-03
       7.7773139E-03
       7.7773139E-03
       7.7773139E-03
       7.7051923E-03
       7.4148952E-03
       4.7286230E-03
       6.8699121E-03
       5.6116582E-03
       6.4096581E-03
       6.5006639E-03
       7.1394861E-03
       7.1987944E-03
       6.8419456E-03
       7.3423103E-03
       8.0168243E-08
       1.8177788E-04
       5.7390380E-03
       5.9581536E-03
       4.1317051E-03
       1.3733396E-03
       6.1347504E-03
       6.0529738E-04
       5.3212919E-04
       4.6546638E-03
       1.7771368E-03
       4.8379757E-04
       1.5388638E-03
       4.3922840E-06
       7.7773139E-03
       7.7773138E-03
       7.7773131E-03
       7.7773139E-03
       7.7773138E-03
       7.7773138E-03
       7.7773139E-03
       7.7773139E-03
       7.7773139E-03
       7.7773139E-03
       7.7773139E-03
       7.7773139E-03
       7.7773139E-03
       7.7773139E-03
       7.7773139E-03
       7.7773139E-03
       7.7773139E-03
       7.7773139E-03
       7.7773139E-03
       7.7773139E-03
       7.7773139E-03
       7.7773139E-03
       7.7773139E-03
       7.7773139E-03
       7.7773139E-03
       7.7773139E-03
       7.7773139E-03
       7.7773123E-03
       7.7773137E-03
       7.7773138E-03
       7.7772682E-03
       7.7773136E-03
       7.7773105E-03
       7.7769499E-03
       7.7773115E-03
       7.7772711E-03
       7.7773137E-03
       7.7773138E-03
       7.7731235E-03
       7.7768175E-03
       7.7767841E-03
       7.7773139E-03
       7.7773135E-03
       7.7773136E-03
       7.7772744E-03
       7.7773139E-03
       7.7773103E-03
       7.7772975E-03
       7.7772990E-03
       7.7771158E-03
       7.7773139E-03
       7.7773139E-03
       7.7773139E-03
       7.7773139E-03
       7.7773139E-03
       7.7773139E-03
       7.7773139E-03
       7.7773139E-03
       7.7757985E-03
       7.7771344E-03
       7.7772946E-03
       7.7773061E-03
       7.7773062E-03
       7.7770385E-03
       7.5804155E-03
       3.9981372E-03
       7.5500498E-03
       6.6812850E-03
       7.7773123E-03
       7.7773139E-03
       7.7764826E-03
       7.7717854E-03
       7.7772860E-03
       7.7770377E-03
       7.7769654E-03
       7.7636999E-03
       7.7760555E-03
       7.7706586E-03
       7.7312833E-03
       7.7635866E-03
       7.3070582E-03
       7.7609314E-03
       7.7764421E-03
       7.7695435E-03
       7.4316820E-03
       7.7270408E-03
       7.6945382E-03
       7.5573576E-03
       5.0039547E-03
       7.6722552E-03
       7.7031077E-03
       7.7428626E-03
       7.7623841E-03
       7.7772295E-03
       7.6901796E-03
       7.7622033E-03
       5.4403395E-05
       8.4945073E-06
       6.3553075E-05
       1.7425449E-05
       7.7770763E-03
       6.5133677E-03
       5.5083226E-03
       4.1928881E-06
       3.7705342E-05
       4.3102933E-05
       2.5181663E-06
       1.1940200E-05
       1.8026568E-06
       7.7761951E-03
       7.7569428E-03
       7.7718257E-03
       7.7467456E-03
       7.7743329E-03
       7.5394692E-03
       7.7768116E-03
       7.5614864E-03
       7.7771907E-03
       7.7754066E-03
       7.7340102E-03
       7.7482317E-03
       1.8893181E-03
       7.7764430E-03
       6.7250958E-03
       6.7256493E-03
       7.3888194E-07
       5.8453776E-03
       7.7773025E-03
       2.8662150E-04
       1.7683426E-04
       4.7833771E-04
       5.7043901E-04
       7.7750323E-03
       7.7771592E-03
       7.6575255E-03
       7.4262557E-03
       7.7773139E-03
       7.7773139E-03
       7.7773139E-03
       7.7773139E-03
       7.7773139E-03
       7.7773139E-03
       7.7773139E-03
       7.7773139E-03
       7.7773139E-03
       7.7773139E-03
       7.7773139E-03
       7.7773139E-03
       7.7773139E-03
       7.7773139E-03
       7.7773139E-03
       7.7773139E-03
       7.7773139E-03
       7.7773139E-03
       7.7773126E-03
       7.7773137E-03
       7.7773126E-03
       7.7773139E-03
       7.7773139E-03
       7.7773139E-03
       7.7773139E-03
       7.7773139E-03
       7.7773139E-03
       7.7773139E-03
       7.7773139E-03
       7.1688533E-03
       1.4511502E-04
       3.7502651E-03
       1.8765135E-07
       7.7773139E-03
       7.7773139E-03
       7.7773139E-03
       7.7773139E-03
       7.7773139E-03
       7.7773139E-03
       7.7773139E-03
       7.7773139E-03
       7.7773139E-03
       7.7773139E-03
       7.7771708E-03
       7.7773139E-03
       7.7773139E-03
       7.7522677E-03
       7.7773139E-03
       7.7773139E-03
       5.7825145E-03
       1.9032325E-03
       6.7906717E-03
       4.3057126E-03
       5.5256087E-03
       7.5021039E-03
       2.5265341E-04
       5.1303971E-03
       2.1864043E-05
       3.5107444E-04
       1.2895594E-04
       6.6425466E-04
       2.1902520E-04
       1.7615879E-03
       2.8025899E-07
       7.7300533E-03
       7.7659234E-03
       6.6657094E-03
       7.4356901E-03
       7.7773138E-03
       7.7773138E-03
       7.7773137E-03
       7.7773078E-03
       7.7773139E-03
       7.7773139E-03
       7.7773139E-03
       7.7668552E-03
       7.7708400E-03
       7.7771873E-03
       7.7293474E-03
       7.5415840E-03
       7.6832010E-03
       7.7599034E-03
       6.9246115E-03
       7.7743787E-03
       7.7625622E-03
       7.7712518E-03
       7.7036437E-03
       7.7765972E-03
       7.7331266E-03
       3.2333817E-07
       7.7684427E-03
       7.5167150E-03
       7.7728535E-03
       7.4596386E-03
       7.0944942E-03
       7.5999091E-03
       5.0837474E-03
       7.1848983E-03
       7.2368497E-03
       5.9581135E-03
       6.7549326E-03
       2.4087248E-03
       2.4296202E-07
       7.5703990E-03
       7.5781397E-03
       7.7499317E-03
       7.7721256E-03
       7.7750553E-03
       7.7693352E-03
       7.7770535E-03
       7.7762503E-03
       7.7725641E-03
       7.7772754E-03
       7.5722831E-03
       4.7862735E-06
       1.5046945E-05
       7.0927616E-03
       3.0497662E-03
       2.2728568E-04
       8.2282358E-04
       1.3925161E-04
       2.3659346E-03
       5.2052870E-03
       2.5795235E-03
       7.7773129E-03
       7.7773139E-03
       7.7773139E-03
       7.7773139E-03
       7.7773139E-03
       7.7773139E-03
       7.7773139E-03
       7.7773139E-03
       7.7773139E-03
       7.7773139E-03
       7.7773139E-03
       7.7773139E-03
       7.7773139E-03
       7.7770303E-03
       7.7773100E-03
       7.7773139E-03
       7.7773139E-03
       7.7773139E-03
       7.7773139E-03
       7.7773139E-03
       7.7773139E-03
       7.7752492E-03
       7.7773139E-03
       7.7773139E-03
       7.7773066E-03
       7.7772733E-03
       7.7773139E-03
       7.7773139E-03
       7.7773139E-03
       7.7773139E-03
       7.7773139E-03
       7.7672855E-03
       7.7773139E-03
       7.7773138E-03
       7.7773139E-03
       7.7772927E-03
       7.7773139E-03
       7.7773139E-03
       7.7773139E-03
       7.7773139E-03
       7.7773139E-03
       7.7773139E-03
       7.7773139E-03
       7.7773139E-03
       7.7773139E-03
       7.7773136E-03
       7.7773136E-03
       7.7773139E-03
       7.7773139E-03
       7.7773139E-03
       7.7773096E-03
       9.8396662E-07
       7.7773139E-03
       1.4550478E-06
       7.7773139E-03
       7.7773138E-03
       7.7773139E-03
       7.7772569E-03
       7.7770118E-03
       7.7773139E-03
       7.7773139E-03
       7.7773139E-03
       7.7773139E-03
       7.7773139E-03
       7.7773139E-03
       7.7773104E-03
       7.7773117E-03
       7.7773135E-03
       7.7773006E-03
       7.7771295E-03
       7.7773139E-03
       7.7772187E-03
       7.7773137E-03
       7.7771777E-03
       7.7773135E-03
       7.7772883E-03
       7.7773139E-03
       7.7773139E-03
       7.7773139E-03
       7.7773137E-03
       7.7773139E-03
       7.7773138E-03
       7.7773134E-03
       7.7773028E-03
       7.7772204E-03
       7.7773111E-03
       7.7773139E-03
       7.7773138E-03
       7.7773139E-03
       7.7773139E-03
       7.7773139E-03
       7.7773137E-03
       7.7773139E-03
       7.7773084E-03
       7.7773127E-03
       7.7773138E-03
       7.7773112E-03
       7.7773138E-03
       7.7773139E-03
       7.7773139E-03
       7.7773137E-03
       7.7773080E-03
       7.7772988E-03
       7.7773010E-03
       7.7770756E-03
       7.7773138E-03
       7.7773130E-03
       7.7773139E-03
       7.7773139E-03
       7.7773139E-03
       7.7773139E-03
       7.7773139E-03
       7.7773139E-03
       7.7773139E-03
       7.7773139E-03
       7.7773139E-03
       7.7773139E-03
       7.7773139E-03
       7.7773139E-03
       7.7773139E-03
       7.7773139E-03
       7.7773139E-03
       7.7773139E-03
       7.7773139E-03
       7.7773139E-03
       7.7773139E-03
       7.7773139E-03
       7.7773139E-03
       7.7773139E-03
       7.7773139E-03
       7.7773139E-03
       7.7773139E-03
       7.7773139E-03