# vtk DataFile Version 3.0
# Solution du M1 TR
ASCII
DATASET UNSTRUCTURED_GRID
POINTS   3280  float
0.0000000E+00  0.0000000E+00  0.2393345E-01
0.2000000E+01  0.0000000E+00  0.1960316E+01
0.2000000E+01  0.1000000E+01  0.1960451E+01
0.0000000E+00  0.1000000E+01  0.2386089E-01
0.1000000E+01  0.0000000E+00  0.9928012E+00
0.1000000E+01  0.1000000E+01  0.9917984E+00
0.1500000E+01  0.5000000E+00  0.1493243E+01
0.1500000E+01  0.0000000E+00  0.1472358E+01
0.1723284E+01  0.3570951E+00  0.1698374E+01
0.1500000E+01  0.2500000E+00  0.1493532E+01
0.1515103E+01  0.2763186E+00  0.1507757E+01
0.1594866E+01  0.2826386E+00  0.1581461E+01
0.1562500E+01  0.1875000E+00  0.1550600E+01
0.1534357E+01  0.1819434E+00  0.1523791E+01
0.1561083E+01  0.3343258E+00  0.1550563E+01
0.1750000E+01  0.0000000E+00  0.1715431E+01
0.1503267E+01  0.1622339E+00  0.1493617E+01
0.1514910E+01  0.2261192E+00  0.1507098E+01
0.1610795E+01  0.1290247E+00  0.1589550E+01
0.1539062E+01  0.1536458E+00  0.1525880E+01
0.1510772E+01  0.1982718E+00  0.1502346E+01
0.1541862E+01  0.2179813E+00  0.1532091E+01
0.1475030E+01  0.2178147E+00  0.1469711E+01
0.1539206E+01  0.2578835E+00  0.1529890E+01
0.1521085E+01  0.2465697E+00  0.1512942E+01
0.1496499E+01  0.2146241E+00  0.1489639E+01
0.1481433E+01  0.1870688E+00  0.1474277E+01
0.1586261E+01  0.1960616E+00  0.1572102E+01
0.1460896E+01  0.2899333E+00  0.1457097E+01
0.1542195E+01  0.2867649E+00  0.1532812E+01
0.1486080E+01  0.2754813E+00  0.1480595E+01
0.1536278E+01  0.3247610E+00  0.1527642E+01
0.1510131E+01  0.3295675E+00  0.1503301E+01
0.1455545E+01  0.2514402E+00  0.1451885E+01
0.1610995E+01  0.1909452E+00  0.1594821E+01
0.1564462E+01  0.2395252E+00  0.1553319E+01
0.1571524E+01  0.3026484E+00  0.1559939E+01
0.1613657E+01  0.2555806E+00  0.1598637E+01
0.1633998E+01  0.2714643E+00  0.1617052E+01
0.1534973E+01  0.3650914E+00  0.1525619E+01
0.1583157E+01  0.2286349E+00  0.1570111E+01
0.1586501E+01  0.1581416E+00  0.1570632E+01
0.1651985E+01  0.2274641E+00  0.1633321E+01
0.1619170E+01  0.2936434E+00  0.1603534E+01
0.1678889E+01  0.2641389E+00  0.1657758E+01
0.1642286E+01  0.2930521E+00  0.1624395E+01
0.1526415E+01  0.3446283E+00  0.1518113E+01
0.1662420E+01  0.3044259E+00  0.1642719E+01
0.1636786E+01  0.2469276E+00  0.1619768E+01
0.1588953E+01  0.3366240E+00  0.1576145E+01
0.1616427E+01  0.3314099E+00  0.1601235E+01
0.1598305E+01  0.3102698E+00  0.1584541E+01
0.1655410E+01  0.2614708E+00  0.1636349E+01
0.1487553E+01  0.3072167E+00  0.1482030E+01
0.1520126E+01  0.3036443E+00  0.1512467E+01
0.1477894E+01  0.2544664E+00  0.1473020E+01
0.1567847E+01  0.2133479E+00  0.1555808E+01
0.1663947E+01  0.3299725E+00  0.1644717E+01
0.1567022E+01  0.2696000E+00  0.1555827E+01
0.1678598E+01  0.3509559E+00  0.1657704E+01
0.1611933E+01  0.3827205E+00  0.1596067E+01
0.1640491E+01  0.3197373E+00  0.1623138E+01
0.1588015E+01  0.2526666E+00  0.1575020E+01
0.1708471E+01  0.3144917E+00  0.1684907E+01
0.1606944E+01  0.3564315E+00  0.1592151E+01
0.1604614E+01  0.2314093E+00  0.1589805E+01
0.1643491E+01  0.3631133E+00  0.1625579E+01
0.2000000E+01  0.5000000E+00  0.1960545E+01
0.1494727E+01  0.3621796E+00  0.1488471E+01
0.1701807E+01  0.3477237E+00  0.1678673E+01
0.1572156E+01  0.3701847E+00  0.1560181E+01
0.1688392E+01  0.3285111E+00  0.1666830E+01
0.1695932E+01  0.3904821E+00  0.1673114E+01
0.1636337E+01  0.3418163E+00  0.1619459E+01
0.1505941E+01  0.9448485E-01  0.1483533E+01
0.1423727E+01  0.1910920E+00  0.1419865E+01
0.1481447E+01  0.3359634E+00  0.1476421E+01
0.1441613E+01  0.3726133E+00  0.1438887E+01
0.1466699E+01  0.3599060E+00  0.1462424E+01
0.1476682E+01  0.4107296E+00  0.1471686E+01
0.1434448E+01  0.3273535E+00  0.1432358E+01
0.1464523E+01  0.3867258E+00  0.1460500E+01
0.1456903E+01  0.3373583E+00  0.1453487E+01
0.1454188E+01  0.3132491E+00  0.1450729E+01
0.1424069E+01  0.2919612E+00  0.1422145E+01
0.1490969E+01  0.3884111E+00  0.1485092E+01
0.1428051E+01  0.4202828E+00  0.1426334E+01
0.1513790E+01  0.3782958E+00  0.1506108E+01
0.1547789E+01  0.4092466E+00  0.1537435E+01
0.1535154E+01  0.3889763E+00  0.1525762E+01
0.1512699E+01  0.4170463E+00  0.1505313E+01
0.1441554E+01  0.3983607E+00  0.1439018E+01
0.1395941E+01  0.3853832E+00  0.1396268E+01
0.1420578E+01  0.3854393E+00  0.1419304E+01
0.1408336E+01  0.3518173E+00  0.1407741E+01
0.1549967E+01  0.3074339E+00  0.1540278E+01
0.1651639E+01  0.4114272E+00  0.1632448E+01
0.1668616E+01  0.3788978E+00  0.1648419E+01
0.1674624E+01  0.4027285E+00  0.1653808E+01
0.1706988E+01  0.4343785E+00  0.1682894E+01
0.1673984E+01  0.4357547E+00  0.1652585E+01
0.1695270E+01  0.4139894E+00  0.1672528E+01
0.1737273E+01  0.4034108E+00  0.1710636E+01
0.1645630E+01  0.3875965E+00  0.1627348E+01
0.1625874E+01  0.4052508E+00  0.1608927E+01
0.1627808E+01  0.4540126E+00  0.1610950E+01
0.1587158E+01  0.4136289E+00  0.1573628E+01
0.1633718E+01  0.4293591E+00  0.1616374E+01
0.1651607E+01  0.4466828E+00  0.1632364E+01
0.1605650E+01  0.4356658E+00  0.1590518E+01
0.1682168E+01  0.4808869E+00  0.1659239E+01
0.1671711E+01  0.4594749E+00  0.1650447E+01
0.1698428E+01  0.4596870E+00  0.1674971E+01
0.1646221E+01  0.4851828E+00  0.1626770E+01
0.1607747E+01  0.4151289E+00  0.1592426E+01
0.1584205E+01  0.4841185E+00  0.1569998E+01
0.1747573E+01  0.4622079E+00  0.1719921E+01
0.1568396E+01  0.4481495E+00  0.1555972E+01
0.1601760E+01  0.4629165E+00  0.1586923E+01
0.1723356E+01  0.4540167E+00  0.1697762E+01
0.1732897E+01  0.4294241E+00  0.1706335E+01
0.1722218E+01  0.4972746E+00  0.1696058E+01
0.1715121E+01  0.4754441E+00  0.1689777E+01
0.1584567E+01  0.4345797E+00  0.1571200E+01
0.1563465E+01  0.4258523E+00  0.1552020E+01
0.1534166E+01  0.4440258E+00  0.1524627E+01
0.1615090E+01  0.4918227E+00  0.1598383E+01
0.1717469E+01  0.4134541E+00  0.1692644E+01
0.1718488E+01  0.3909170E+00  0.1693442E+01
0.1741353E+01  0.3769080E+00  0.1714563E+01
0.1781199E+01  0.4241746E+00  0.1751111E+01
0.2000000E+01  0.2500000E+00  0.1960359E+01
0.1756308E+01  0.4199875E+00  0.1728169E+01
0.1762447E+01  0.3937207E+00  0.1733936E+01
0.1765097E+01  0.4438197E+00  0.1736074E+01
0.1807974E+01  0.4625425E+00  0.1775346E+01
0.1789176E+01  0.4471344E+00  0.1758127E+01
0.1514158E+01  0.1287364E+00  0.1499275E+01
0.1777674E+01  0.4803377E+00  0.1747704E+01
0.1811145E+01  0.4395021E+00  0.1778846E+01
0.1850404E+01  0.4566449E+00  0.1815550E+01
0.1748483E+01  0.3522599E+00  0.1721319E+01
0.1731235E+01  0.3304535E+00  0.1705700E+01
0.1777870E+01  0.3654441E+00  0.1748555E+01
0.1748149E+01  0.2821176E+00  0.1721032E+01
0.1732875E+01  0.3039003E+00  0.1707162E+01
0.1708314E+01  0.2807181E+00  0.1684922E+01
0.1767650E+01  0.3193756E+00  0.1739239E+01
0.1372661E+01  0.1704076E+00  0.1369726E+01
0.1411157E+01  0.2494459E+00  0.1410007E+01
0.1448000E+01  0.2246098E+00  0.1444373E+01
0.1360382E+01  0.2278583E+00  0.1361215E+01
0.1433680E+01  0.2431125E+00  0.1431273E+01
0.1388814E+01  0.2314916E+00  0.1388367E+01
0.1314549E+01  0.2124991E+00  0.1317168E+01
0.1404157E+01  0.2007613E+00  0.1402181E+01
0.1415035E+01  0.1072182E+00  0.1402569E+01
0.1520299E+01  0.1091515E+00  0.1501256E+01
0.1459010E+01  0.1690672E+00  0.1452116E+01
0.1436337E+01  0.2690050E+00  0.1433817E+01
0.1443480E+01  0.1263360E+00  0.1433138E+01
0.1625000E+01  0.0000000E+00  0.1593425E+01
0.1414954E+01  0.2197329E+00  0.1412844E+01
0.1335299E+01  0.2266424E+00  0.1337227E+01
0.1396801E+01  0.1612344E+00  0.1391799E+01
0.1792033E+01  0.3934232E+00  0.1761490E+01
0.1541310E+01  0.1264947E+00  0.1524769E+01
0.1483859E+01  0.1256971E+00  0.1469851E+01
0.1500341E+01  0.1139400E+00  0.1483471E+01
0.1498380E+01  0.1421255E+00  0.1485822E+01
0.1478242E+01  0.1468909E+00  0.1468115E+01
0.1453147E+01  0.1972183E+00  0.1448226E+01
0.1348833E+01  0.2067866E+00  0.1349643E+01
0.1368157E+01  0.2800764E+00  0.1369396E+01
0.1250000E+01  0.0000000E+00  0.1232319E+01
0.1496272E+01  0.2780308E-01  0.1469349E+01
0.1430228E+01  0.1622338E+00  0.1423597E+01
0.1544491E+01  0.1012427E+00  0.1522530E+01
0.1505524E+01  0.5428530E-01  0.1479884E+01
0.1576405E+01  0.1180891E+00  0.1556130E+01
0.1526885E+01  0.8834234E-01  0.1502560E+01
0.1558557E+01  0.6358195E-01  0.1531561E+01
0.1372206E+01  0.9428859E-01  0.1358120E+01
0.1414069E+01  0.8636887E-01  0.1397295E+01
0.1351230E+01  0.1581055E+00  0.1348383E+01
0.1371634E+01  0.2528708E+00  0.1372527E+01
0.1392978E+01  0.2694234E+00  0.1392891E+01
0.1321668E+01  0.2603105E+00  0.1325064E+01
0.1392566E+01  0.3027057E+00  0.1392703E+01
0.1345601E+01  0.2495441E+00  0.1347661E+01
0.1349996E+01  0.1827855E+00  0.1349333E+01
0.1475238E+01  0.9618066E-01  0.1455689E+01
0.1487372E+01  0.4556180E+00  0.1481662E+01
0.1432024E+01  0.3509343E+00  0.1429852E+01
0.1619231E+01  0.5383449E+00  0.1601120E+01
0.1532505E+01  0.4233173E+00  0.1523412E+01
0.1547332E+01  0.4788657E+00  0.1536459E+01
0.1627786E+01  0.4750493E+00  0.1610204E+01
0.1750658E+01  0.4911384E+00  0.1722624E+01
0.1783313E+01  0.5336292E+00  0.1752316E+01
0.1744147E+01  0.5299352E+00  0.1715875E+01
0.1772978E+01  0.5077787E+00  0.1742871E+01
0.1739682E+01  0.5092411E+00  0.1711937E+01
0.1715917E+01  0.5251974E+00  0.1689872E+01
0.1809547E+01  0.4999146E+00  0.1776682E+01
0.1486188E+01  0.5335558E+00  0.1479731E+01
0.1695320E+01  0.5058771E+00  0.1671293E+01
0.1793562E+01  0.5145404E+00  0.1761767E+01
0.1827482E+01  0.5355643E+00  0.1793649E+01
0.1805457E+01  0.5332234E+00  0.1772930E+01
0.1812320E+01  0.5734372E+00  0.1779588E+01
0.1794794E+01  0.5557356E+00  0.1763150E+01
0.1637325E+01  0.5533192E+00  0.1617611E+01
0.1761146E+01  0.5591762E+00  0.1731731E+01
0.1789115E+01  0.5788851E+00  0.1757722E+01
0.1693317E+01  0.6123782E+00  0.1670028E+01
0.1522396E+01  0.5359490E+00  0.1512973E+01
0.1814654E+01  0.6254783E+00  0.1781816E+01
0.1726166E+01  0.5505978E+00  0.1699067E+01
0.1691322E+01  0.5307786E+00  0.1667499E+01
0.1516987E+01  0.5143680E+00  0.1508419E+01
0.1661909E+01  0.5147686E+00  0.1640215E+01
0.1761865E+01  0.6508066E+00  0.1732886E+01
0.1692174E+01  0.5698207E+00  0.1668349E+01
0.1780214E+01  0.6037461E+00  0.1749679E+01
[...]
POINT_DATA    3280
SCALARS hauteur float
LOOKUP_TABLE DEFAULT
       2.3933449E-02
       1.8288700E-04
       3.1827509E-04
       2.3860892E-02
       1.2734624E-02
       1.1731814E-02
       2.3142680E-02
       2.2583777E-03
       9.4410342E-03
       2.3432427E-02
       2.2855181E-02
       1.8386803E-02
       1.9246032E-02
       2.0018498E-02
       2.0597875E-02
       3.1474959E-04
       2.0314750E-02
       2.2385116E-02
       1.0863064E-02
       1.7496675E-02
       2.1689115E-02
       2.0963581E-02
       2.4083066E-02
       2.1365994E-02
       2.2177143E-02
       2.2970383E-02
       2.2374517E-02
       1.7459950E-02
       2.5321442E-02
       2.1357961E-02
       2.4137768E-02
       2.1987223E-02
       2.3272900E-02
       2.5353779E-02
       1.5938538E-02
       2.0042014E-02
       1.9740846E-02
       1.7144898E-02
       1.5625529E-02
       2.1242912E-02
       1.8511711E-02
       1.5755328E-02
       1.4265388E-02
       1.6639420E-02
       1.2335299E-02
       1.4845156E-02
       2.2125123E-02
       1.3437229E-02
       1.5607916E-02
       1.8865270E-02
       1.7028883E-02
       1.8096055E-02
       1.3936776E-02
       2.4128591E-02
       2.2642220E-02
       2.4585776E-02
       1.9213789E-02
       1.3937472E-02
       2.0040410E-02
       1.2565652E-02
       1.6265462E-02
       1.5348193E-02
       1.8659529E-02
       1.0491647E-02
       1.7239023E-02
       1.7175657E-02
       1.4848111E-02
       4.1184653E-04
       2.3538581E-02
       1.0789262E-02
       1.9363421E-02
       1.2093364E-02
       1.0987095E-02
       1.5739098E-02
       7.6106172E-03
       2.4517522E-02
       2.4504006E-02
       2.6009878E-02
       2.4961862E-02
       2.4439379E-02
       2.6504079E-02
       2.5169679E-02
       2.5625166E-02
       2.5527625E-02
       2.6462390E-02
       2.3843410E-02
       2.6749506E-02
       2.2493453E-02
       2.0498034E-02
       2.1208142E-02
       2.2766918E-02
       2.6199080E-02
       2.8152874E-02
       2.7043138E-02
       2.7477956E-02
       2.1207544E-02
       1.3731707E-02
       1.3064691E-02
       1.2564937E-02
       9.9324583E-03
       1.1969310E-02
       1.1051142E-02
       7.9931416E-03
       1.4521082E-02
       1.5461918E-02
       1.5590184E-02
       1.8107497E-02
       1.5222188E-02
       1.3678551E-02
       1.6874338E-02
       1.0601714E-02
       1.2058757E-02
       1.0398594E-02
       1.3363829E-02
       1.6727066E-02
       1.7372111E-02
       7.1829532E-03
       1.8839231E-02
       1.7091444E-02
       8.7582340E-03
       7.9802124E-03
       8.1699642E-03
       8.8446700E-03
       1.8217904E-02
       1.9720367E-02
       2.1042514E-02
       1.5487491E-02
       9.4105396E-03
       9.2087912E-03
       7.9215670E-03
       5.4165059E-03
       2.2604517E-04
       6.8701732E-03
       6.6207674E-03
       6.1613099E-03
       3.4113103E-03
       4.6161617E-03
       1.5299017E-02
       5.4656165E-03
       3.8030317E-03
       2.0313267E-03
       7.6893441E-03
       8.9743587E-03
       6.1239975E-03
       7.7298930E-03
       8.8286711E-03
       1.0660662E-02
       6.8248709E-03
       2.4426583E-02
       2.6979471E-02
       2.5236581E-02
       2.7949914E-02
       2.6171114E-02
       2.7237426E-02
       2.8823071E-02
       2.6013216E-02
       1.5740339E-02
       1.1261592E-02
       2.2189460E-02
       2.6111829E-02
       1.8431955E-02
       8.1698296E-04
       2.6094888E-02
       2.8545167E-02
       2.2840902E-02
       5.1788894E-03
       1.4182308E-02
       1.5570092E-02
       1.3037562E-02
       1.7310467E-02
       1.9339658E-02
       2.4044935E-02
       2.7696983E-02
       2.8511379E-02
       7.2358060E-03
       2.9031536E-03
       2.1878390E-02
       8.8260144E-03
       4.3706702E-03
       1.1148736E-02
       6.1106328E-03
       4.0714346E-03
       1.3266384E-02
       1.1413635E-02
       2.4087519E-02
       2.8234130E-02
       2.7679793E-02
       2.9741845E-02
       2.7895727E-02
       2.8881505E-02
       2.6246600E-02
       9.8575892E-03
       2.3938366E-02
       2.6373075E-02
       1.4165439E-02
       2.1454989E-02
       1.9969984E-02
       1.4865120E-02
       6.8627988E-03
       4.5512667E-03
       6.4949093E-03
       5.2348996E-03
       6.9325397E-03
       8.1594507E-03
       3.2052729E-03
       2.3168506E-02
       9.7658522E-03
       3.9567233E-03
       2.5955232E-03
       3.4611867E-03
       3.3936079E-03
       4.1328435E-03
       1.2923042E-02
       5.6908726E-03
       4.2704620E-03
       1.0464823E-02
       2.0923554E-02
       3.3344734E-03
       7.3087683E-03
       9.8907255E-03
       2.1670520E-02
       1.1433072E-02
       6.1403742E-03
       9.9062984E-03
       4.9514285E-03
       1.8443443E-02
       1.1051964E-02
       6.4047113E-03
       1.6966798E-02
       1.3138072E-02
       7.3670923E-03
       7.0185118E-03
       9.9184268E-03
       1.0464335E-02
       3.0502881E-03
       4.8585891E-03
       4.8222350E-04
       8.3025743E-03
       1.9763537E-03
       5.2045767E-03
       5.8934472E-03
       1.1903898E-02
       9.0796806E-03
       4.2496322E-03
       2.7969838E-03
       2.8672068E-03
       3.7849009E-03
       4.5824211E-03
       4.7172050E-03
       6.2400140E-03
       1.7819795E-02
       2.6679323E-02
       1.2722995E-02
       1.5094621E-02
       1.7676344E-02
       2.1178118E-02
       3.8849439E-03
       6.1929136E-03
       3.6923296E-03
       1.5644616E-03
       1.3704202E-03
       2.1416139E-03
       7.3778414E-03
       6.9165380E-03
       1.5763588E-03
       1.0628364E-02
       3.0179602E-03
       9.5798102E-03
       2.1982325E-03
       5.6538252E-04
       6.1431789E-03
       1.3792041E-02
       1.2615684E-02
       1.4956268E-02
       6.1911811E-03
       1.5466698E-02
       2.1604180E-02
       1.9788579E-02
       2.5974879E-02
       2.4269618E-02
       2.1193586E-02
       2.4860726E-02
       1.0298885E-02
       4.4336338E-03
       2.0477939E-02
       6.8836294E-03
       1.9473813E-02
       4.4652215E-03
       2.7208193E-02
       2.7236480E-02
       2.8206029E-02
       2.8604213E-02
       2.9342900E-02
       2.3764673E-02
       2.2429203E-02
       2.5263935E-02
       2.1415029E-02
       2.1441400E-02
       1.6190953E-02
       1.9824007E-02
       1.2541686E-02
       2.0029857E-02
       1.8658740E-02
       4.0059745E-03
       2.7593539E-03
       2.2963377E-03
       5.4849803E-03
       1.1744003E-02
       2.5888011E-03
       3.6982226E-03
       1.3382414E-02
       1.6308806E-02
       3.9610355E-03
       1.0114870E-02
       4.0957017E-03
       8.5156192E-03
       6.7526380E-03
       8.4944578E-03
       8.0583067E-03
       3.8994135E-03
       2.2014288E-03
       9.7523116E-05
       5.3367082E-03
       1.2866806E-03
       7.9207129E-03
       4.6488995E-03
       1.3293091E-02
       4.1248824E-04
       2.6890880E-03
       6.8651840E-03
       6.2627952E-03
       1.1723628E-02
       8.4728075E-03
       2.5394471E-03
       1.5076360E-02
       1.1963978E-03
       1.0432125E-02
       1.8485698E-02
       1.0866525E-03
       6.0801840E-04
       1.1865483E-02
       1.2383931E-02
       1.2051334E-02
       1.1683675E-02
       6.4786192E-03
       1.4940656E-02
       1.4236958E-02
       1.3949918E-02
       1.6139163E-02
       1.3515485E-02
       8.5073671E-03
       1.2166302E-02
       1.0500287E-02
       4.0571888E-04
       2.6701647E-03
       2.7474749E-03
       3.9652384E-03
       2.1635348E-03
       2.1971713E-03
       1.0002297E-03
       9.8992948E-04
       6.8965587E-04
       1.1992217E-02
       1.4276692E-02
       1.4139561E-02
       1.0862958E-02
       1.5760935E-02
       9.1197527E-03
       3.2925347E-03
       7.2160166E-03
       3.8347512E-03
       2.7643441E-03
       1.8517298E-03
       2.8478328E-03
       3.5270855E-03
       2.6810335E-02
       3.0062759E-02
       2.8628365E-02
       2.9455151E-02
       3.0407801E-02
       2.9209259E-02
       3.0142430E-02
       3.1351954E-02
       3.0872588E-02
       3.1942762E-02
       3.0583725E-02
       3.1513123E-02
       3.2764826E-02
       3.2068703E-02
       3.2006468E-02
       3.1998590E-02
       3.1157552E-02
       2.9803564E-02
       2.9231425E-02
       2.9394118E-02
       2.9234292E-02
       3.0215806E-02
       3.0944009E-02
       3.0992560E-02
       2.7619706E-02
       2.4630492E-02
       2.7762593E-02
       2.6202198E-02
       2.4805987E-02
       2.9028679E-02
       3.0369675E-02
       3.0056374E-02
       2.9476554E-02
       2.9267357E-02
       3.0072132E-02
       3.1707696E-02
       3.1031991E-02
       2.8796600E-02
       3.0800087E-02
       3.1519295E-02
       3.1861224E-02
       3.1114946E-02
       2.9441046E-02
       2.9846680E-02
       3.3378595E-02
       3.1151267E-02
       3.3199573E-02
       3.2544882E-02
       3.2550560E-02
       3.2722118E-02
       3.3932725E-02
       3.3317394E-02
       3.3262515E-02
       3.2412880E-02
       3.3078980E-02
       3.4390536E-02
       3.3685624E-02
       3.4138097E-02
       3.3024599E-02
       3.5368647E-02
       3.2452120E-02
       3.4592206E-02
       3.1104455E-02
       3.3749744E-02
       3.4831116E-02
       3.5703617E-02
       3.5488479E-02
       3.6666338E-02
       3.6064824E-02
       3.5440805E-02
       3.4374897E-02
       3.2074147E-02
       3.3066558E-02
       3.6116154E-02
       3.6382382E-02
       3.6482138E-02
       3.7562712E-02
       3.7091716E-02
       3.5162571E-02
       3.6913458E-02
       3.1348321E-02
       3.2840914E-02
       3.6946340E-02
       3.6976252E-02
       3.6086184E-02
       3.6766347E-02
       3.7256442E-02
       3.0066132E-02
       3.2764423E-02
       3.8058733E-02
       3.1907141E-02
       3.4292115E-02
       3.7572294E-02
       3.7848502E-02
       3.0058519E-02
       3.3679718E-02
       3.4432949E-02
       3.7367638E-02
       3.7837341E-02
       3.7775057E-02
       3.8826746E-02
       3.8406905E-02
       3.0937712E-02
       2.9990498E-02
       3.1417963E-02
       2.7785962E-02
       3.1524743E-02
       2.8993769E-02
       2.9208022E-02
       2.8692384E-02
       3.8572970E-02
       3.9580639E-02
       2.7754622E-02
       3.8256230E-02
       3.8999640E-02
       3.8154684E-02
       3.9115872E-02
       2.6497669E-02
       2.8219253E-02
       2.7218171E-02
       2.5386003E-02
       2.6530755E-02
       2.6604369E-02
       3.8719177E-02
       3.8188689E-02
       3.9202710E-02
       3.8159571E-02
       2.5479384E-02
       2.4304086E-02
       3.7883594E-02
       3.9683825E-02
       3.8804989E-02
       3.6907801E-02
       2.4471771E-02
       3.9345720E-02
       3.7490884E-02
       3.6772514E-02
       2.5841410E-02
       3.8744174E-02
       3.9457373E-02
       3.7923418E-02
       4.0513615E-02
       3.8024531E-02
       4.0093426E-02
       4.0035533E-02
       4.0089677E-02
       4.0493059E-02
       4.0125366E-02
       3.9660794E-02
       3.9624185E-02
       4.1005224E-02
       4.0546968E-02
       4.1127685E-02
       4.0663941E-02
       4.0947004E-02
       2.5608320E-02
       3.0411623E-03
       2.0182416E-03
       9.5625610E-04
       1.5136435E-03
       9.8477322E-04
       1.3959463E-03
       1.2679967E-03
       1.7151147E-03
       1.8955554E-03
       1.6439346E-03
       2.1713286E-03
       2.3931038E-04
       3.5983192E-04
       1.0868547E-03
       1.1944676E-03
       7.9291123E-04
       5.3613569E-04
       1.2439547E-03
       3.7251492E-04
       4.3304270E-04
       8.3708705E-04
       5.8586832E-04
       3.4814133E-04
       5.1711328E-04
       2.3694576E-04
       2.3142121E-02
       1.1851501E-02
       1.0910609E-02
       1.3649661E-02
       1.2424895E-02
       1.2788148E-02
       1.4674413E-02
       2.0177314E-02
       1.7311194E-02
       1.9733502E-02
       2.0900840E-02
       1.8024053E-02
       1.9096468E-02
       1.6596045E-02
       1.9751922E-02
       2.1530704E-02
       2.1352715E-02
       2.2573259E-02
       2.3714657E-02
       2.3090670E-02
       2.1242814E-02
       1.8809551E-02
       2.0015071E-02
       2.0061484E-02
       2.0443316E-02
       2.2439403E-02
       2.1268226E-02
       2.0536847E-02
       2.1504262E-02
       2.0642346E-02
       2.1956834E-02
       1.8412385E-02
       2.1677682E-02
       1.9680025E-02
       2.3213862E-02
       2.0712340E-02
       2.2581095E-02
       2.3707549E-02
       2.0578391E-02
       2.0802827E-02
       2.2140199E-02
       2.3414976E-02
       2.5192416E-02
       2.4255562E-02
       2.3453623E-02
       2.5729278E-02
       2.4024845E-02
       2.4901246E-02
       2.4208236E-02
       2.3185118E-02
       2.4897683E-02
       2.4527008E-02
       2.6006832E-02
       2.4215888E-02
       2.5343376E-02
       2.7590289E-02
       2.6523042E-02
       2.7803558E-02
       5.2963974E-03
       6.8173156E-03
       8.1915096E-03
       8.9723259E-03
       8.8704215E-03
       9.3656839E-03
       2.8806018E-03
       7.8655943E-04
       3.3369839E-03
       1.4948823E-03
       9.8960450E-03
       1.5848118E-02
       1.0213721E-02
       8.8528672E-03
       1.2413715E-02
       1.2914154E-02
       1.0790062E-02
       8.3263885E-03
       8.7925234E-03
       1.0029156E-02
       1.0501911E-02
       1.2577817E-02
       6.9299799E-03
       5.4924345E-03
       7.2417142E-03
       6.9910996E-03
       5.2493466E-03
       5.9833352E-03
       7.0526224E-03
       3.3233797E-03
       3.1141855E-03
       4.6265316E-03
       3.3280123E-03
       4.1763567E-03
       4.3010466E-03
       8.2871252E-03
       3.4138539E-03
       4.8338940E-03
       2.5923541E-03
       1.2578620E-03
       1.2864409E-03
       8.1422847E-04
       1.5704031E-02
       1.8072789E-02
       1.7955027E-02
       3.9610612E-03
       4.7435200E-03
       5.5481782E-03
       3.2769397E-03
       3.3970563E-03
       2.1706162E-03
       2.7714820E-02
       2.7086089E-02
       2.9022901E-02
       2.7107123E-02
       2.9185807E-02
       2.5301168E-02
       3.0432810E-02
       2.4777458E-02
       3.1565599E-02
       3.0229776E-02
       2.7070777E-02
       2.8460108E-02
       1.6650988E-02
       3.1165614E-02
       2.1596106E-02
       2.1989163E-02
       1.0428331E-02
       2.0603261E-02
       3.2220198E-02
       1.3903844E-02
       9.4606860E-03
       1.3825527E-02
       1.3258884E-02
       3.0763267E-02
       3.2244011E-02
       2.3848058E-02
       2.2231722E-02
       3.0605249E-02
       3.3500982E-02
       3.3855085E-02
       3.0438431E-02
       3.3547918E-02
       3.5887780E-02
       3.5135850E-02
       3.8608847E-02
       3.7263816E-02
       3.9290367E-02
       3.8675525E-02
       3.9267343E-02
       3.8597523E-02
       3.9285237E-02
       4.0406772E-02
       3.9846523E-02
       3.9883308E-02
       3.9952473E-02
       3.7019781E-02
       3.7657294E-02
       3.6064822E-02
       3.7349301E-02
       4.0018778E-02
       4.0228961E-02
       3.9429284E-02
       3.9217521E-02
       3.9598121E-02
       4.0757957E-02
       4.1937925E-02
       1.8202294E-03
       4.4394042E-04
       7.2458319E-04
       3.5348758E-04
       1.4405452E-02
       1.5529911E-02
       1.4000067E-02
       1.5851210E-02
       1.5107672E-02
       2.2476681E-02
       2.5694419E-02
       2.5043614E-02
       1.6993649E-02
       1.5815255E-02
       1.7733358E-02
       2.2671834E-02
       2.2036424E-02
       2.0701712E-02
       2.5514734E-02
       2.8961697E-02
       1.2180162E-03
       6.6055774E-04
       1.9031239E-03
       9.5471229E-04
       1.2030159E-03
       3.2849965E-03
       3.2985699E-04
       1.0920070E-03
       1.3803149E-04
       2.4794135E-04
       3.8701442E-04
       5.6507159E-04
       1.9251856E-04
       5.1477555E-04
       1.4273221E-04
       5.0196352E-03
       6.5802774E-03
       1.5931413E-03
       2.1786757E-03
       1.3654665E-02
       1.5008536E-02
       1.7100469E-02
       1.7669760E-02
       1.7496726E-02
       1.8945551E-02
       1.8984312E-02
       8.5835599E-03
       7.9968763E-03
       1.1782365E-02
       1.2889925E-02
       3.8271525E-03
       9.8850876E-03
       1.1117679E-02
       2.1997799E-03
       1.0244561E-02
       1.2857140E-02
       1.4574383E-02
       1.4506968E-02
       1.5759582E-02
       1.4157760E-02
       6.4218800E-04
       1.6179107E-02
       1.2115679E-02
       1.5779323E-02
       1.1029363E-02
       1.1307975E-02
       1.0668693E-02
       4.4538836E-03
       7.5854657E-03
       5.6718997E-03
       6.8420300E-03
       5.3783270E-03
       2.3612759E-03
       1.0331435E-03
       1.5270702E-02
       1.4317911E-02
       1.6780713E-02
       5.4816797E-03
       5.7058044E-03
       4.8507554E-03
       7.3150617E-03
       6.3194818E-03
       5.6286898E-03
       9.2356115E-03
       2.7397863E-03
       8.0456231E-04
       6.1316225E-04
       2.1881044E-02
       1.6871622E-02
       1.0433627E-02
       1.2865854E-02
       1.0140164E-02
       1.5192360E-02
       1.7965754E-02
       1.7098091E-02
       3.3041384E-02
       3.5030852E-02
       3.5218217E-02
       3.5375869E-02
       3.5430776E-02
       3.6028181E-02
       3.4437766E-02
       3.4192796E-02
       3.5004324E-02
       3.4180491E-02
       3.8596450E-02
       3.8476904E-02
       4.3596920E-02
       3.8401351E-02
       3.6786324E-02
       4.1093452E-02
       4.0325919E-02
       4.1155242E-02
       4.0345644E-02
       3.8972035E-02
       4.2229735E-02
       3.4092242E-02
       4.1843391E-02
       4.2967038E-02
       3.7045401E-02
       3.2985964E-02
       4.2998713E-02
       4.2655824E-02
       4.0749374E-02
       4.1080769E-02
       4.1295972E-02
       3.4408832E-02
       4.2224609E-02
       3.7156117E-02
       4.1750426E-02
       3.5883739E-02
       4.2604521E-02
       4.1578156E-02
       4.2184931E-02
       4.1848404E-02
       4.2372368E-02
       4.0867907E-02
       4.2968025E-02
       3.8912646E-02
       4.2667840E-02
       3.8481039E-02
       3.7645100E-02
       4.2469612E-02
       4.2974718E-02
       3.9098748E-02
       3.7627448E-02
       1.9513736E-02
       4.3392536E-02
       1.7158497E-02
       4.3782705E-02
       3.9393184E-02
       4.3590534E-02
       3.5675125E-02
       3.4574603E-02
       4.3653019E-02
       4.4053404E-02
       4.4032623E-02
       4.4600356E-02
       4.3352150E-02
       4.3256362E-02
       3.8511981E-02
       3.6570823E-02
       3.8106206E-02
       3.6111189E-02
       3.5513879E-02
       4.1580248E-02
       3.7024637E-02
       3.8069922E-02
       3.5095907E-02
       3.5621787E-02
       3.7210368E-02
       4.5199446E-02
       3.9646841E-02
       4.2418412E-02
       3.6600465E-02
       4.2137058E-02
       3.7099253E-02
       3.6483894E-02
       3.5452142E-02
       3.4571627E-02
       3.5929819E-02
       3.6349142E-02
       3.6550662E-02
       3.6144371E-02
       3.5602953E-02
       3.6015869E-02
       3.5138507E-02
       3.5911490E-02
       3.4435983E-02
       3.4058139E-02
       3.4724411E-02
       3.4045682E-02
       3.4687939E-02
       3.5326801E-02
       3.4800023E-02
       3.4032068E-02
       3.3337190E-02
       3.3183847E-02
       3.3079562E-02
       3.2032412E-02
       3.3564831E-02
       3.3998504E-02
       3.7590725E-02
       3.9995160E-02
       3.9034533E-02
       3.9317837E-02
       4.0484137E-02
       4.1568985E-02
       4.1314277E-02
       4.1592851E-02
       4.1351909E-02
       4.0885216E-02
       4.1729829E-02
       4.1217519E-02
       4.2285051E-02
       4.1193001E-02
       4.2184723E-02
       4.1862826E-02
       4.2599364E-02
       4.1556218E-02
       4.1566109E-02
       4.1560892E-02
       4.0569334E-02
       4.1988560E-02
       4.1122325E-02
       4.0762230E-02
       4.1793631E-02
       4.1893085E-02