# vtk DataFile Version 3.0
# Solution du M1 TR
ASCII
DATASET UNSTRUCTURED_GRID
POINTS   3280  float
0.0000000E+00  0.0000000E+00  0.2413757E-01
0.2000000E+01  0.0000000E+00  0.1960325E+01
0.2000000E+01  0.1000000E+01  0.1960455E+01
0.0000000E+00  0.1000000E+01  0.2398313E-01
0.1000000E+01  0.0000000E+00  0.9927255E+00
0.1000000E+01  0.1000000E+01  0.9917178E+00
0.1500000E+01  0.5000000E+00  0.1492731E+01
0.1500000E+01  0.0000000E+00  0.1472252E+01
0.1723284E+01  0.3570951E+00  0.1698036E+01
0.1500000E+01  0.2500000E+00  0.1493171E+01
0.1515103E+01  0.2763186E+00  0.1507365E+01
0.1594866E+01  0.2826386E+00  0.1580996E+01
0.1562500E+01  0.1875000E+00  0.1550136E+01
0.1534357E+01  0.1819434E+00  0.1523357E+01
0.1561083E+01  0.3343258E+00  0.1550136E+01
0.1750000E+01  0.0000000E+00  0.1715434E+01
0.1503267E+01  0.1622339E+00  0.1493217E+01
0.1514910E+01  0.2261192E+00  0.1506704E+01
0.1610795E+01  0.1290247E+00  0.1589100E+01
0.1539062E+01  0.1536458E+00  0.1525417E+01
0.1510772E+01  0.1982718E+00  0.1501952E+01
0.1541862E+01  0.2179813E+00  0.1531656E+01
0.1475030E+01  0.2178147E+00  0.1469396E+01
0.1539206E+01  0.2578835E+00  0.1529458E+01
0.1521085E+01  0.2465697E+00  0.1512533E+01
0.1496499E+01  0.2146241E+00  0.1489281E+01
0.1481433E+01  0.1870688E+00  0.1473932E+01
0.1586261E+01  0.1960616E+00  0.1571601E+01
0.1460896E+01  0.2899333E+00  0.1456778E+01
0.1542195E+01  0.2867649E+00  0.1532387E+01
0.1486080E+01  0.2754813E+00  0.1480242E+01
0.1536278E+01  0.3247610E+00  0.1527236E+01
0.1510131E+01  0.3295675E+00  0.1502918E+01
0.1455545E+01  0.2514402E+00  0.1451591E+01
0.1610995E+01  0.1909452E+00  0.1594304E+01
0.1564462E+01  0.2395252E+00  0.1552859E+01
0.1571524E+01  0.3026484E+00  0.1559495E+01
0.1613657E+01  0.2555806E+00  0.1598157E+01
0.1633998E+01  0.2714643E+00  0.1616582E+01
0.1534973E+01  0.3650914E+00  0.1525187E+01
0.1583157E+01  0.2286349E+00  0.1569620E+01
0.1586501E+01  0.1581416E+00  0.1570134E+01
0.1651985E+01  0.2274641E+00  0.1632835E+01
0.1619170E+01  0.2936434E+00  0.1603070E+01
0.1678889E+01  0.2641389E+00  0.1657331E+01
0.1642286E+01  0.2930521E+00  0.1623936E+01
0.1526415E+01  0.3446283E+00  0.1517705E+01
0.1662420E+01  0.3044259E+00  0.1642281E+01
0.1636786E+01  0.2469276E+00  0.1619279E+01
0.1588953E+01  0.3366240E+00  0.1575700E+01
0.1616427E+01  0.3314099E+00  0.1600783E+01
0.1598305E+01  0.3102698E+00  0.1584086E+01
0.1655410E+01  0.2614708E+00  0.1635889E+01
0.1487553E+01  0.3072167E+00  0.1481667E+01
0.1520126E+01  0.3036443E+00  0.1512072E+01
0.1477894E+01  0.2544664E+00  0.1472694E+01
0.1567847E+01  0.2133479E+00  0.1555334E+01
0.1663947E+01  0.3299725E+00  0.1644287E+01
0.1567022E+01  0.2696000E+00  0.1555373E+01
0.1678598E+01  0.3509559E+00  0.1657295E+01
0.1611933E+01  0.3827205E+00  0.1595603E+01
0.1640491E+01  0.3197373E+00  0.1622688E+01
0.1588015E+01  0.2526666E+00  0.1574542E+01
0.1708471E+01  0.3144917E+00  0.1684540E+01
0.1606944E+01  0.3564315E+00  0.1591698E+01
0.1604614E+01  0.2314093E+00  0.1589297E+01
0.1643491E+01  0.3631133E+00  0.1625138E+01
0.2000000E+01  0.5000000E+00  0.1960547E+01
0.1494727E+01  0.3621796E+00  0.1488086E+01
0.1701807E+01  0.3477237E+00  0.1678302E+01
0.1572156E+01  0.3701847E+00  0.1559730E+01
0.1688392E+01  0.3285111E+00  0.1666427E+01
0.1695932E+01  0.3904821E+00  0.1672733E+01
0.1636337E+01  0.3418163E+00  0.1619014E+01
0.1505941E+01  0.9448485E-01  0.1483209E+01
0.1423727E+01  0.1910920E+00  0.1419620E+01
0.1481447E+01  0.3359634E+00  0.1476064E+01
0.1441613E+01  0.3726133E+00  0.1438552E+01
0.1466699E+01  0.3599060E+00  0.1462069E+01
0.1476682E+01  0.4107296E+00  0.1471296E+01
0.1434448E+01  0.3273535E+00  0.1432057E+01
0.1464523E+01  0.3867258E+00  0.1460138E+01
0.1456903E+01  0.3373583E+00  0.1453157E+01
0.1454188E+01  0.3132491E+00  0.1450405E+01
0.1424069E+01  0.2919612E+00  0.1421862E+01
0.1490969E+01  0.3884111E+00  0.1484702E+01
0.1428051E+01  0.4202828E+00  0.1425995E+01
0.1513790E+01  0.3782958E+00  0.1505695E+01
0.1547789E+01  0.4092466E+00  0.1536969E+01
0.1535154E+01  0.3889763E+00  0.1525318E+01
0.1512699E+01  0.4170463E+00  0.1504885E+01
0.1441554E+01  0.3983607E+00  0.1438679E+01
0.1395941E+01  0.3853832E+00  0.1395993E+01
0.1420578E+01  0.3854393E+00  0.1418996E+01
0.1408336E+01  0.3518173E+00  0.1407459E+01
0.1549967E+01  0.3074339E+00  0.1539859E+01
0.1651639E+01  0.4114272E+00  0.1631997E+01
0.1668616E+01  0.3788978E+00  0.1647999E+01
0.1674624E+01  0.4027285E+00  0.1653386E+01
0.1706988E+01  0.4343785E+00  0.1682529E+01
0.1673984E+01  0.4357547E+00  0.1652166E+01
0.1695270E+01  0.4139894E+00  0.1672137E+01
0.1737273E+01  0.4034108E+00  0.1710336E+01
0.1645630E+01  0.3875965E+00  0.1626899E+01
0.1625874E+01  0.4052508E+00  0.1608459E+01
0.1627808E+01  0.4540126E+00  0.1610465E+01
0.1587158E+01  0.4136289E+00  0.1573149E+01
0.1633718E+01  0.4293591E+00  0.1615899E+01
0.1651607E+01  0.4466828E+00  0.1631905E+01
0.1605650E+01  0.4356658E+00  0.1590029E+01
0.1682168E+01  0.4808869E+00  0.1658850E+01
0.1671711E+01  0.4594749E+00  0.1650020E+01
0.1698428E+01  0.4596870E+00  0.1674590E+01
0.1646221E+01  0.4851828E+00  0.1626310E+01
0.1607747E+01  0.4151289E+00  0.1591950E+01
0.1584205E+01  0.4841185E+00  0.1569479E+01
0.1747573E+01  0.4622079E+00  0.1719649E+01
0.1568396E+01  0.4481495E+00  0.1555472E+01
0.1601760E+01  0.4629165E+00  0.1586421E+01
0.1723356E+01  0.4540167E+00  0.1697433E+01
0.1732897E+01  0.4294241E+00  0.1706033E+01
0.1722218E+01  0.4972746E+00  0.1695754E+01
0.1715121E+01  0.4754441E+00  0.1689446E+01
0.1584567E+01  0.4345797E+00  0.1570707E+01
0.1563465E+01  0.4258523E+00  0.1551538E+01
0.1534166E+01  0.4440258E+00  0.1524143E+01
0.1615090E+01  0.4918227E+00  0.1597884E+01
0.1717469E+01  0.4134541E+00  0.1692298E+01
0.1718488E+01  0.3909170E+00  0.1693106E+01
0.1741353E+01  0.3769080E+00  0.1714269E+01
0.1781199E+01  0.4241746E+00  0.1750908E+01
0.2000000E+01  0.2500000E+00  0.1960359E+01
0.1756308E+01  0.4199875E+00  0.1727908E+01
0.1762447E+01  0.3937207E+00  0.1733686E+01
0.1765097E+01  0.4438197E+00  0.1735842E+01
0.1807974E+01  0.4625425E+00  0.1775229E+01
0.1789176E+01  0.4471344E+00  0.1757959E+01
0.1514158E+01  0.1287364E+00  0.1498816E+01
0.1777674E+01  0.4803377E+00  0.1747503E+01
0.1811145E+01  0.4395021E+00  0.1778711E+01
0.1850404E+01  0.4566449E+00  0.1815492E+01
0.1748483E+01  0.3522599E+00  0.1721035E+01
0.1731235E+01  0.3304535E+00  0.1705377E+01
0.1777870E+01  0.3654441E+00  0.1748326E+01
0.1748149E+01  0.2821176E+00  0.1720738E+01
0.1732875E+01  0.3039003E+00  0.1706840E+01
0.1708314E+01  0.2807181E+00  0.1684542E+01
0.1767650E+01  0.3193756E+00  0.1738987E+01
0.1372661E+01  0.1704076E+00  0.1369537E+01
0.1411157E+01  0.2494459E+00  0.1409788E+01
0.1448000E+01  0.2246098E+00  0.1444108E+01
0.1360382E+01  0.2278583E+00  0.1361067E+01
0.1433680E+01  0.2431125E+00  0.1431022E+01
0.1388814E+01  0.2314916E+00  0.1388185E+01
0.1314549E+01  0.2124991E+00  0.1317077E+01
0.1404157E+01  0.2007613E+00  0.1401986E+01
0.1415035E+01  0.1072182E+00  0.1402213E+01
0.1520299E+01  0.1091515E+00  0.1500830E+01
0.1459010E+01  0.1690672E+00  0.1451799E+01
0.1436337E+01  0.2690050E+00  0.1433539E+01
0.1443480E+01  0.1263360E+00  0.1432788E+01
0.1625000E+01  0.0000000E+00  0.1593401E+01
0.1414954E+01  0.2197329E+00  0.1412622E+01
0.1335299E+01  0.2266424E+00  0.1337110E+01
0.1396801E+01  0.1612344E+00  0.1391553E+01
0.1792033E+01  0.3934232E+00  0.1761296E+01
0.1541310E+01  0.1264947E+00  0.1524303E+01
0.1483859E+01  0.1256971E+00  0.1469438E+01
0.1500341E+01  0.1139400E+00  0.1483033E+01
0.1498380E+01  0.1421255E+00  0.1485392E+01
0.1478242E+01  0.1468909E+00  0.1467732E+01
0.1453147E+01  0.1972183E+00  0.1447938E+01
0.1348833E+01  0.2067866E+00  0.1349510E+01
0.1368157E+01  0.2800764E+00  0.1369211E+01
0.1250000E+01  0.0000000E+00  0.1232048E+01
0.1496272E+01  0.2780308E-01  0.1469211E+01
0.1430228E+01  0.1622338E+00  0.1423300E+01
0.1544491E+01  0.1012427E+00  0.1522156E+01
0.1505524E+01  0.5428530E-01  0.1479682E+01
0.1576405E+01  0.1180891E+00  0.1555704E+01
0.1526885E+01  0.8834234E-01  0.1502282E+01
0.1558557E+01  0.6358195E-01  0.1531372E+01
0.1372206E+01  0.9428859E-01  0.1357804E+01
0.1414069E+01  0.8636887E-01  0.1396958E+01
0.1351230E+01  0.1581055E+00  0.1348205E+01
0.1371634E+01  0.2528708E+00  0.1372360E+01
0.1392978E+01  0.2694234E+00  0.1392683E+01
0.1321668E+01  0.2603105E+00  0.1324950E+01
0.1392566E+01  0.3027057E+00  0.1392474E+01
0.1345601E+01  0.2495441E+00  0.1347527E+01
0.1349996E+01  0.1827855E+00  0.1349189E+01
0.1475238E+01  0.9618066E-01  0.1455321E+01
0.1487372E+01  0.4556180E+00  0.1481218E+01
0.1432024E+01  0.3509343E+00  0.1429535E+01
0.1619231E+01  0.5383449E+00  0.1600636E+01
0.1532505E+01  0.4233173E+00  0.1522952E+01
0.1547332E+01  0.4788657E+00  0.1535935E+01
0.1627786E+01  0.4750493E+00  0.1609721E+01
0.1750658E+01  0.4911384E+00  0.1722368E+01
0.1783313E+01  0.5336292E+00  0.1752160E+01
0.1744147E+01  0.5299352E+00  0.1715640E+01
0.1772978E+01  0.5077787E+00  0.1742683E+01
0.1739682E+01  0.5092411E+00  0.1711681E+01
0.1715917E+01  0.5251974E+00  0.1689572E+01
0.1809547E+01  0.4999146E+00  0.1776578E+01
0.1486188E+01  0.5335558E+00  0.1479201E+01
0.1695320E+01  0.5058771E+00  0.1670932E+01
0.1793562E+01  0.5145404E+00  0.1761633E+01
0.1827482E+01  0.5355643E+00  0.1793573E+01
0.1805457E+01  0.5332234E+00  0.1772819E+01
0.1812320E+01  0.5734372E+00  0.1779482E+01
0.1794794E+01  0.5557356E+00  0.1763014E+01
0.1637325E+01  0.5533192E+00  0.1617161E+01
0.1761146E+01  0.5591762E+00  0.1731532E+01
0.1789115E+01  0.5788851E+00  0.1757582E+01
0.1693317E+01  0.6123782E+00  0.1669671E+01
0.1522396E+01  0.5359490E+00  0.1512421E+01
0.1814654E+01  0.6254783E+00  0.1781711E+01
0.1726166E+01  0.5505978E+00  0.1698802E+01
0.1691322E+01  0.5307786E+00  0.1667138E+01
0.1516987E+01  0.5143680E+00  0.1507879E+01
0.1661909E+01  0.5147686E+00  0.1639803E+01
0.1761865E+01  0.6508066E+00  0.1732676E+01
0.1692174E+01  0.5698207E+00  0.1667994E+01
0.1780214E+01  0.6037461E+00  0.1749512E+01
[...]
POINT_DATA    3280
SCALARS hauteur float
LOOKUP_TABLE DEFAULT
       2.4137571E-02
       1.9158440E-04
       3.2166065E-04
       2.3983127E-02
       1.2658966E-02
       1.1651265E-02
       2.2631210E-02
       2.1524989E-03
       9.1026836E-03
       2.3070739E-02
       2.2462678E-02
       1.7921804E-02
       1.8781895E-02
       1.9584980E-02
       2.0170140E-02
       3.1782612E-04
       1.9914844E-02
       2.1991161E-02
       1.0413764E-02
       1.7033483E-02
       2.1294602E-02
       2.0529147E-02
       2.3767846E-02
       2.0933713E-02
       2.1768270E-02
       2.2611830E-02
       2.2029534E-02
       1.6958754E-02
       2.5002691E-02
       2.0933106E-02
       2.3784946E-02
       2.1581754E-02
       2.2889564E-02
       2.5060456E-02
       1.5421856E-02
       1.9582013E-02
       1.9297762E-02
       1.6665418E-02
       1.5155607E-02
       2.0811261E-02
       1.8020520E-02
       1.5256637E-02
       1.3779198E-02
       1.6175898E-02
       1.1907927E-02
       1.4386144E-02
       2.1716701E-02
       1.2999056E-02
       1.5119313E-02
       1.8420251E-02
       1.6576942E-02
       1.7641451E-02
       1.3476860E-02
       2.3765883E-02
       2.2246566E-02
       2.4259355E-02
       1.8739872E-02
       1.3507813E-02
       1.9586517E-02
       1.2157066E-02
       1.5801247E-02
       1.4897793E-02
       1.8181217E-02
       1.0124638E-02
       1.6786153E-02
       1.6668453E-02
       1.4407319E-02
       4.1426576E-04
       2.3153952E-02
       1.0417641E-02
       1.8912700E-02
       1.1690743E-02
       1.0606352E-02
       1.5293902E-02
       7.2871610E-03
       2.4272165E-02
       2.4147113E-02
       2.5674904E-02
       2.4606666E-02
       2.4048628E-02
       2.6202888E-02
       2.4808172E-02
       2.5295279E-02
       2.5203558E-02
       2.6179581E-02
       2.3453284E-02
       2.6410050E-02
       2.2080099E-02
       2.0032038E-02
       2.0764108E-02
       2.2339099E-02
       2.5859535E-02
       2.7878609E-02
       2.6734852E-02
       2.7196351E-02
       2.0788450E-02
       1.3280979E-02
       1.2644671E-02
       1.2142954E-02
       9.5667644E-03
       1.1549785E-02
       1.0659611E-02
       7.6925543E-03
       1.4071748E-02
       1.4994515E-02
       1.5105280E-02
       1.7628757E-02
       1.4747021E-02
       1.3219994E-02
       1.6385214E-02
       1.0213154E-02
       1.1631864E-02
       1.0017576E-02
       1.2903867E-02
       1.6250113E-02
       1.6853016E-02
       6.9117569E-03
       1.8338926E-02
       1.6589547E-02
       8.4293400E-03
       7.6784294E-03
       7.8657651E-03
       8.5135300E-03
       1.7725274E-02
       1.9238187E-02
       2.0558295E-02
       1.4988291E-02
       9.0645148E-03
       8.8729524E-03
       7.6268643E-03
       5.2137368E-03
       2.2587545E-04
       6.6095529E-03
       6.3705572E-03
       5.9292315E-03
       3.2949439E-03
       4.4480830E-03
       1.4839702E-02
       5.2642755E-03
       3.6682776E-03
       1.9733186E-03
       7.4059584E-03
       8.6509958E-03
       5.8946408E-03
       7.4358122E-03
       8.5063604E-03
       1.0281232E-02
       6.5723291E-03
       2.4237865E-02
       2.6760046E-02
       2.4971065E-02
       2.7801791E-02
       2.5919918E-02
       2.7054644E-02
       2.8731864E-02
       2.5817859E-02
       1.5383987E-02
       1.0835322E-02
       2.1872603E-02
       2.5833528E-02
       1.8081768E-02
       7.9318250E-04
       2.5873450E-02
       2.8427315E-02
       2.2594211E-02
       4.9848750E-03
       1.3716478E-02
       1.5157036E-02
       1.2599377E-02
       1.6880306E-02
       1.8956360E-02
       2.3757122E-02
       2.7564422E-02
       2.8326131E-02
       6.9650934E-03
       2.7654047E-03
       2.1581188E-02
       8.4518942E-03
       4.1683344E-03
       1.0722446E-02
       5.8331107E-03
       3.8828126E-03
       1.2950841E-02
       1.1076603E-02
       2.3909116E-02
       2.8067393E-02
       2.7472280E-02
       2.9627856E-02
       2.7666221E-02
       2.8747576E-02
       2.6102673E-02
       9.4896335E-03
       2.3494167E-02
       2.6056455E-02
       1.3682096E-02
       2.0994811E-02
       1.9446862E-02
       1.4382527E-02
       6.6068779E-03
       4.3951740E-03
       6.2595520E-03
       5.0472125E-03
       6.6769704E-03
       7.8597016E-03
       3.1014396E-03
       2.2638049E-02
       9.4056344E-03
       3.8231700E-03
       2.5187806E-03
       3.3501428E-03
       3.2879107E-03
       3.9965920E-03
       1.2473377E-02
       5.4913430E-03
       4.1301393E-03
       1.0108031E-02
       2.0371313E-02
       3.2298129E-03
       7.0440329E-03
       9.5304169E-03
       2.1130287E-02
       1.1021179E-02
       5.9308334E-03
       9.5514481E-03
       4.7843190E-03
       1.7910436E-02
       1.0655632E-02
       6.1810160E-03
       1.6437879E-02
       1.2836064E-02
       7.1084171E-03
       6.7758240E-03
       9.6360362E-03
       1.0210452E-02
       2.9533813E-03
       4.7101425E-03
       4.7984238E-04
       8.0867803E-03
       1.9198603E-03
       5.0284180E-03
       5.6892487E-03
       1.1497289E-02
       8.7140941E-03
       4.0944948E-03
       2.7006674E-03
       2.7705064E-03
       3.6478825E-03
       4.4123290E-03
       4.5431294E-03
       6.0080451E-03
       1.7375061E-02
       2.6519130E-02
       1.2250279E-02
       1.4614541E-02
       1.7197319E-02
       2.0924241E-02
       3.7090529E-03
       5.9082382E-03
       3.5245133E-03
       1.4990396E-03
       1.3185650E-03
       2.0495076E-03
       7.0534912E-03
       6.5968566E-03
       1.5175708E-03
       1.0178577E-02
       2.8838216E-03
       9.1574560E-03
       2.1058010E-03
       5.5607375E-04
       5.8530617E-03
       1.3288511E-02
       1.2127427E-02
       1.4449900E-02
       5.9209821E-03
       1.5074823E-02
       2.1385870E-02
       1.9434838E-02
       2.5866470E-02
       2.4114849E-02
       2.1006696E-02
       2.4658098E-02
       9.9558509E-03
       4.2160531E-03
       2.0174581E-02
       6.5971538E-03
       1.9167810E-02
       4.2578513E-03
       2.6960275E-02
       2.6967974E-02
       2.7965631E-02
       2.8355666E-02
       2.9149762E-02
       2.3341118E-02
       2.1965953E-02
       2.4868815E-02
       2.0915401E-02
       2.0920281E-02
       1.5680709E-02
       1.9284106E-02
       1.2097971E-02
       1.9527233E-02
       1.8141887E-02
       3.8666409E-03
       2.6724152E-03
       2.2306781E-03
       5.2905779E-03
       1.1322308E-02
       2.5114797E-03
       3.5804141E-03
       1.2918083E-02
       1.5783631E-02
       3.8298522E-03
       9.7981637E-03
       3.9587062E-03
       8.2263385E-03
       6.5295934E-03
       8.2430345E-03
       7.7954667E-03
       3.7716271E-03
       2.1331551E-03
       9.8865520E-05
       5.1572859E-03
       1.2537380E-03
       7.6905461E-03
       4.4929578E-03
       1.2910767E-02
       4.1200483E-04
       2.6102982E-03
       6.6465345E-03
       6.0696644E-03
       1.1409723E-02
       8.1719003E-03
       2.4828643E-03
       1.4574436E-02
       1.1693596E-03
       1.0214902E-02
       1.7938856E-02
       1.0645314E-03
       5.9903953E-04
       1.1589726E-02
       1.2156078E-02
       1.1700669E-02
       1.1312208E-02
       6.3425371E-03
       1.4730614E-02
       1.4063600E-02
       1.3695198E-02
       1.5902874E-02
       1.3324758E-02
       8.3120422E-03
       1.1988892E-02
       1.0104973E-02
       4.0004888E-04
       2.5841826E-03
       2.6531555E-03
       3.8161506E-03
       2.0711063E-03
       2.0981875E-03
       9.6433103E-04
       9.5787762E-04
       6.7409224E-04
       1.1520702E-02
       1.3771129E-02
       1.3760089E-02
       1.0490097E-02
       1.5435876E-02
       8.8098128E-03
       3.1308093E-03
       6.9276554E-03
       3.6460134E-03
       2.6310325E-03
       1.7693178E-03
       2.7149120E-03
       3.3621810E-03
       2.6563184E-02
       2.9822935E-02
       2.8427135E-02
       2.9285755E-02
       3.0246660E-02
       2.9059698E-02
       3.0007314E-02
       3.1257110E-02
       3.0748004E-02
       3.1810596E-02
       3.0489930E-02
       3.1393172E-02
       3.2681572E-02
       3.1967342E-02
       3.1950087E-02
       3.1921664E-02
       3.1089105E-02
       2.9718354E-02
       2.9126493E-02
       2.9347469E-02
       2.9166392E-02
       3.0153394E-02
       3.0911201E-02
       3.0944770E-02
       2.7549190E-02
       2.4530750E-02
       2.7673962E-02
       2.6077692E-02
       2.4693881E-02
       2.8809537E-02
       3.0176573E-02
       2.9867966E-02
       2.9258130E-02
       2.9024015E-02
       2.9856221E-02
       3.1529282E-02
       3.0846765E-02
       2.8508534E-02
       3.0590770E-02
       3.1319016E-02
       3.1703252E-02
       3.0949730E-02
       2.9180435E-02
       2.9581453E-02
       3.3244864E-02
       3.1008052E-02
       3.3082980E-02
       3.2395126E-02
       3.2417217E-02
       3.2614682E-02
       3.3857121E-02
       3.3237522E-02
       3.3203628E-02
       3.2245417E-02
       3.2949465E-02
       3.4298079E-02
       3.3575507E-02
       3.4051583E-02
       3.2844183E-02
       3.5314893E-02
       3.2266869E-02
       3.4529732E-02
       3.0841752E-02
       3.3616557E-02
       3.4757073E-02
       3.5638104E-02
       3.5426041E-02
       3.6629963E-02
       3.6020145E-02
       3.5413848E-02
       3.4329515E-02
       3.1856349E-02
       3.2911566E-02
       3.6065237E-02
       3.6332015E-02
       3.6435845E-02
       3.7554956E-02
       3.7066142E-02
       3.5120625E-02
       3.6892548E-02
       3.1120214E-02
       3.2641176E-02
       3.6915555E-02
       3.6948152E-02
       3.6051632E-02
       3.6737409E-02
       3.7235780E-02
       2.9772088E-02
       3.2566777E-02
       3.8061861E-02
       3.1667780E-02
       3.4159247E-02
       3.7560527E-02
       3.7844655E-02
       2.9730923E-02
       3.3522572E-02
       3.4309635E-02
       3.7353573E-02
       3.7840088E-02
       3.7773059E-02
       3.8847552E-02
       3.8418977E-02
       3.0650444E-02
       2.9674111E-02
       3.1151167E-02
       2.7405356E-02
       3.1259344E-02
       2.8655894E-02
       2.8904685E-02
       2.8322579E-02
       3.8588355E-02
       3.9616822E-02
       2.7422671E-02
       3.8264169E-02
       3.9031640E-02
       3.8173143E-02
       3.9142478E-02
       2.6115825E-02
       2.7874016E-02
       2.6841065E-02
       2.4925856E-02
       2.6109223E-02
       2.6153613E-02
       3.8740861E-02
       3.8198798E-02
       3.9233810E-02
       3.8171521E-02
       2.5053449E-02
       2.3831202E-02
       3.7890917E-02
       3.9723767E-02
       3.8827774E-02
       3.6912626E-02
       2.3976907E-02
       3.9381650E-02
       3.7493256E-02
       3.6765315E-02
       2.5379843E-02
       3.8771245E-02
       3.9492333E-02
       3.7953559E-02
       4.0566654E-02
       3.8048583E-02
       4.0139001E-02
       4.0080046E-02
       4.0136526E-02
       4.0558774E-02
       4.0178893E-02
       3.9704070E-02
       3.9676758E-02
       4.1075505E-02
       4.0605600E-02
       4.1193250E-02
       4.0729454E-02
       4.1022064E-02
       2.5246719E-02
       2.9457699E-03
       1.9625895E-03
       9.4038316E-04
       1.4772825E-03
       9.6564807E-04
       1.3650544E-03
       1.2396140E-03
       1.6672070E-03
       1.8377915E-03
       1.5943936E-03
       2.1003502E-03
       2.4101789E-04
       3.6147347E-04
       1.0617594E-03
       1.1627978E-03
       7.7527198E-04
       5.3157430E-04
       1.2082561E-03
       3.6948627E-04
       4.3343024E-04
       8.1655400E-04
       5.7661932E-04
       3.4290386E-04
       5.0670159E-04
       2.3807654E-04
       2.2652926E-02
       1.1436866E-02
       1.0531664E-02
       1.3193082E-02
       1.2019581E-02
       1.2361877E-02
       1.4223573E-02
       1.9627925E-02
       1.6775692E-02
       1.9237737E-02
       2.0365275E-02
       1.7500448E-02
       1.8553078E-02
       1.6103121E-02
       1.9226374E-02
       2.1033215E-02
       2.0951706E-02
       2.2055671E-02
       2.3197478E-02
       2.2646393E-02
       2.0785769E-02
       1.8382862E-02
       1.9572613E-02
       1.9758692E-02
       2.0079517E-02
       2.2163923E-02
       2.0976263E-02
       2.0324128E-02
       2.1265260E-02
       2.0384285E-02
       2.1788616E-02
       1.8157483E-02
       2.1483587E-02
       1.9512637E-02
       2.3021535E-02
       2.0532592E-02
       2.2355818E-02
       2.3456037E-02
       2.0429121E-02
       2.0642924E-02
       2.1988070E-02
       2.3100629E-02
       2.4997138E-02
       2.4043920E-02
       2.3291961E-02
       2.5457908E-02
       2.3842765E-02
       2.4750533E-02
       2.4046693E-02
       2.3035971E-02
       2.4657992E-02
       2.4235932E-02
       2.5632270E-02
       2.3848167E-02
       2.5014340E-02
       2.7315625E-02
       2.6219870E-02
       2.7445642E-02
       5.1148861E-03
       6.5750374E-03
       7.8953465E-03
       8.6461507E-03
       8.5619886E-03
       9.1272272E-03
       2.7882428E-03
       7.6717765E-04
       3.2281673E-03
       1.4602739E-03
       9.5630164E-03
       1.5526019E-02
       1.0029164E-02
       8.6917299E-03
       1.1965528E-02
       1.2438752E-02
       1.0364758E-02
       7.9559107E-03
       8.4184139E-03
       9.6044405E-03
       1.0054460E-02
       1.2089788E-02
       6.6025090E-03
       5.2515274E-03
       6.9354455E-03
       6.6817239E-03
       5.0152360E-03
       5.7157601E-03
       6.7334371E-03
       3.1902808E-03
       2.9762348E-03
       4.4258022E-03
       3.2025159E-03
       4.0050178E-03
       4.1297341E-03
       7.9627001E-03
       3.2915814E-03
       4.6540874E-03
       2.4752064E-03
       1.2103950E-03
       1.2411231E-03
       7.9343557E-04
       1.5193145E-02
       1.7793000E-02
       1.7703969E-02
       3.7692556E-03
       4.5220254E-03
       5.3038329E-03
       3.1167394E-03
       3.2336213E-03
       2.0707922E-03
       2.7603698E-02
       2.7021240E-02
       2.8989930E-02
       2.7051965E-02
       2.9148467E-02
       2.5228587E-02
       3.0407557E-02
       2.4689948E-02
       3.1546477E-02
       3.0207774E-02
       2.7018980E-02
       2.8431717E-02
       1.6461588E-02
       3.1161836E-02
       2.1447269E-02
       2.1859841E-02
       1.0226872E-02
       2.0462753E-02
       3.2192461E-02
       1.3700445E-02
       9.1521962E-03
       1.3590637E-02
       1.2998725E-02
       3.0749883E-02
       3.2234937E-02
       2.3703333E-02
       2.2044273E-02
       3.0372135E-02
       3.3403954E-02
       3.3795340E-02
       3.0176339E-02
       3.3397752E-02
       3.5823131E-02
       3.5046822E-02
       3.8637222E-02
       3.7248231E-02
       3.9322579E-02
       3.8706674E-02
       3.9309410E-02
       3.8633251E-02
       3.9324016E-02
       4.0458324E-02
       3.9892383E-02
       3.9927921E-02
       4.0001385E-02
       3.7060628E-02
       3.7692263E-02
       3.6089651E-02
       3.7365600E-02
       4.0076211E-02
       4.0295992E-02
       3.9470774E-02
       3.9259238E-02
       3.9653357E-02
       4.0813473E-02
       4.2022238E-02
       1.7738804E-03
       4.4468054E-04
       7.1569973E-04
       3.5728716E-04
       1.3924018E-02
       1.5020291E-02
       1.3590039E-02
       1.5450145E-02
       1.4626176E-02
       2.1937597E-02
       2.5216417E-02
       2.4551741E-02
       1.6540800E-02
       1.5390866E-02
       1.7556397E-02
       2.2282099E-02
       2.1703033E-02
       2.0567402E-02
       2.5077123E-02
       2.8595385E-02
       1.1845780E-03
       6.4778946E-04
       1.8443700E-03
       9.3819728E-04
       1.1693614E-03
       3.1822979E-03
       3.2799935E-04
       1.0612078E-03
       1.4036626E-04
       2.4653641E-04
       3.8559313E-04
       5.5972577E-04
       1.8897974E-04
       5.0157978E-04
       1.4020776E-04
       4.8607192E-03
       6.3943256E-03
       1.5533069E-03
       2.1185347E-03
       1.3316400E-02
       1.4718292E-02
       1.6829325E-02
       1.7455480E-02
       1.7160661E-02
       1.8646512E-02
       1.8619410E-02
       8.4288366E-03
       7.8307280E-03
       1.1583655E-02
       1.2707634E-02
       3.7234752E-03
       9.7113564E-03
       1.0942722E-02
       2.1342815E-03
       1.0077125E-02
       1.2680230E-02
       1.4402776E-02
       1.4327472E-02
       1.5589758E-02
       1.3977500E-02
       6.3519139E-04
       1.6011067E-02
       1.1924445E-02
       1.5613192E-02
       1.0841323E-02
       1.1116090E-02
       1.0488025E-02
       4.3413119E-03
       7.4195211E-03
       5.5328579E-03
       6.6905993E-03
       5.2397686E-03
       2.3028812E-03
       1.0158208E-03
       1.5094545E-02
       1.4135946E-02
       1.6612021E-02
       5.2494831E-03
       5.4729399E-03
       4.6601885E-03
       7.0185649E-03
       6.0681211E-03
       5.4112294E-03
       8.8893320E-03
       2.6454717E-03
       7.8298919E-04
       6.0338849E-04
       2.1726890E-02
       1.6648822E-02
       1.0133756E-02
       1.2583118E-02
       9.8513483E-03
       1.4917738E-02
       1.7738639E-02
       1.6895098E-02
       3.3014535E-02
       3.4930456E-02
       3.5133814E-02
       3.5289801E-02
       3.5350657E-02
       3.5975072E-02
       3.4323586E-02
       3.4079451E-02
       3.4916951E-02
       3.4074866E-02
       3.8619179E-02
       3.8516226E-02
       4.3677370E-02
       3.8464466E-02
       3.6823425E-02
       4.1153618E-02
       4.0379235E-02
       4.1215446E-02
       4.0400532E-02
       3.9017960E-02
       4.2298276E-02
       3.4136987E-02
       4.1910080E-02
       4.3041165E-02
       3.7089543E-02
       3.2998934E-02
       4.3077828E-02
       4.2733848E-02
       4.0804766E-02
       4.1140854E-02
       4.1357437E-02
       3.4469757E-02
       4.2303750E-02
       3.7186541E-02
       4.1820528E-02
       3.5923183E-02
       4.2676592E-02
       4.1648345E-02
       4.2257267E-02
       4.1917809E-02
       4.2450110E-02
       4.0924682E-02
       4.3056548E-02
       3.8960872E-02
       4.2751878E-02
       3.8529503E-02
       3.7683903E-02
       4.2557292E-02
       4.3058076E-02
       3.9142235E-02
       3.7674102E-02
       1.9737186E-02
       4.3476195E-02
       1.7321541E-02
       4.3870012E-02
       3.9444727E-02
       4.3682342E-02
       3.5711020E-02
       3.4612909E-02
       4.3743631E-02
       4.4148781E-02
       4.4125938E-02
       4.4695324E-02
       4.3438114E-02
       4.3344587E-02
       3.8563125E-02
       3.6603567E-02
       3.8151670E-02
       3.6153429E-02
       3.5558777E-02
       4.1644711E-02
       3.7076809E-02
       3.8112170E-02
       3.5137186E-02
       3.5634620E-02
       3.7259085E-02
       4.5294135E-02
       3.9697002E-02
       4.2491591E-02
       3.6619944E-02
       4.2205991E-02
       3.7123838E-02
       3.6512487E-02
       3.5482076E-02
       3.4595066E-02
       3.5948239E-02
       3.6345701E-02
       3.6562653E-02
       3.6148876E-02
       3.5597212E-02
       3.6000968E-02
       3.5145469E-02
       3.5884723E-02
       3.4451965E-02
       3.4055598E-02
       3.4722785E-02
       3.4054712E-02
       3.4672796E-02
       3.5308466E-02
       3.4769451E-02
       3.4003558E-02
       3.3320454E-02
       3.3179159E-02
       3.3085296E-02
       3.2042334E-02
       3.3522545E-02
       3.3984309E-02
       3.7600926E-02
       4.0057035E-02
       3.9077347E-02
       3.9365086E-02
       4.0536066E-02
       4.1646771E-02
       4.1392067E-02
       4.1677908E-02
       4.1433486E-02
       4.0962586E-02
       4.1814584E-02
       4.1298787E-02
       4.2376055E-02
       4.1269114E-02
       4.2274174E-02
       4.1950890E-02
       4.2691190E-02
       4.1639065E-02
       4.1641345E-02
       4.1640874E-02
       4.0625786E-02
       4.2072456E-02
       4.1191576E-02
       4.0812035E-02
       4.1871177E-02
       4.1980185E-02