# vtk DataFile Version 3.0
# Solution du M1 TR
ASCII
DATASET UNSTRUCTURED_GRID
POINTS   3280  float
0.0000000E+00  0.0000000E+00  0.2370811E-01
0.2000000E+01  0.0000000E+00  0.1960306E+01
0.2000000E+01  0.1000000E+01  0.1960447E+01
0.0000000E+00  0.1000000E+01  0.2371643E-01
0.1000000E+01  0.0000000E+00  0.9928349E+00
0.1000000E+01  0.1000000E+01  0.9918834E+00
0.1500000E+01  0.5000000E+00  0.1493857E+01
0.1500000E+01  0.0000000E+00  0.1472501E+01
0.1723284E+01  0.3570951E+00  0.1698814E+01
0.1500000E+01  0.2500000E+00  0.1493936E+01
0.1515103E+01  0.2763186E+00  0.1508207E+01
0.1594866E+01  0.2826386E+00  0.1582024E+01
0.1562500E+01  0.1875000E+00  0.1551139E+01
0.1534357E+01  0.1819434E+00  0.1524285E+01
0.1561083E+01  0.3343258E+00  0.1551073E+01
0.1750000E+01  0.0000000E+00  0.1715428E+01
0.1503267E+01  0.1622339E+00  0.1494062E+01
0.1514910E+01  0.2261192E+00  0.1507541E+01
0.1610795E+01  0.1290247E+00  0.1590115E+01
0.1539062E+01  0.1536458E+00  0.1526417E+01
0.1510772E+01  0.1982718E+00  0.1502786E+01
0.1541862E+01  0.2179813E+00  0.1532589E+01
0.1475030E+01  0.2178147E+00  0.1470053E+01
0.1539206E+01  0.2578835E+00  0.1530392E+01
0.1521085E+01  0.2465697E+00  0.1513408E+01
0.1496499E+01  0.2146241E+00  0.1490035E+01
0.1481433E+01  0.1870688E+00  0.1474652E+01
0.1586261E+01  0.1960616E+00  0.1572699E+01
0.1460896E+01  0.2899333E+00  0.1457451E+01
0.1542195E+01  0.2867649E+00  0.1533310E+01
0.1486080E+01  0.2754813E+00  0.1480991E+01
0.1536278E+01  0.3247610E+00  0.1528118E+01
0.1510131E+01  0.3295675E+00  0.1503747E+01
0.1455545E+01  0.2514402E+00  0.1452203E+01
0.1610995E+01  0.1909452E+00  0.1595450E+01
0.1564462E+01  0.2395252E+00  0.1553858E+01
0.1571524E+01  0.3026484E+00  0.1560469E+01
0.1613657E+01  0.2555806E+00  0.1599222E+01
0.1633998E+01  0.2714643E+00  0.1617634E+01
0.1534973E+01  0.3650914E+00  0.1526133E+01
0.1583157E+01  0.2286349E+00  0.1570695E+01
0.1586501E+01  0.1581416E+00  0.1571227E+01
0.1651985E+01  0.2274641E+00  0.1633928E+01
0.1619170E+01  0.2936434E+00  0.1604104E+01
0.1678889E+01  0.2641389E+00  0.1658302E+01
0.1642286E+01  0.2930521E+00  0.1624968E+01
0.1526415E+01  0.3446283E+00  0.1518594E+01
0.1662420E+01  0.3044259E+00  0.1643273E+01
0.1636786E+01  0.2469276E+00  0.1620371E+01
0.1588953E+01  0.3366240E+00  0.1576685E+01
0.1616427E+01  0.3314099E+00  0.1601791E+01
0.1598305E+01  0.3102698E+00  0.1585095E+01
0.1655410E+01  0.2614708E+00  0.1636927E+01
0.1487553E+01  0.3072167E+00  0.1482444E+01
0.1520126E+01  0.3036443E+00  0.1512927E+01
0.1477894E+01  0.2544664E+00  0.1473380E+01
0.1567847E+01  0.2133479E+00  0.1556363E+01
0.1663947E+01  0.3299725E+00  0.1645258E+01
0.1567022E+01  0.2696000E+00  0.1556365E+01
0.1678598E+01  0.3509559E+00  0.1658224E+01
0.1611933E+01  0.3827205E+00  0.1596645E+01
0.1640491E+01  0.3197373E+00  0.1623699E+01
0.1588015E+01  0.2526666E+00  0.1575593E+01
0.1708471E+01  0.3144917E+00  0.1685379E+01
0.1606944E+01  0.3564315E+00  0.1592709E+01
0.1604614E+01  0.2314093E+00  0.1590418E+01
0.1643491E+01  0.3631133E+00  0.1626132E+01
0.2000000E+01  0.5000000E+00  0.1960542E+01
0.1494727E+01  0.3621796E+00  0.1488918E+01
0.1701807E+01  0.3477237E+00  0.1679152E+01
0.1572156E+01  0.3701847E+00  0.1560727E+01
0.1688392E+01  0.3285111E+00  0.1667344E+01
0.1695932E+01  0.3904821E+00  0.1673605E+01
0.1636337E+01  0.3418163E+00  0.1620013E+01
0.1505941E+01  0.9448485E-01  0.1483939E+01
0.1423727E+01  0.1910920E+00  0.1420120E+01
0.1481447E+01  0.3359634E+00  0.1476830E+01
0.1441613E+01  0.3726133E+00  0.1439267E+01
0.1466699E+01  0.3599060E+00  0.1462832E+01
0.1476682E+01  0.4107296E+00  0.1472140E+01
0.1434448E+01  0.3273535E+00  0.1432695E+01
0.1464523E+01  0.3867258E+00  0.1460915E+01
0.1456903E+01  0.3373583E+00  0.1453861E+01
0.1454188E+01  0.3132491E+00  0.1451093E+01
0.1424069E+01  0.2919612E+00  0.1422455E+01
0.1490969E+01  0.3884111E+00  0.1485546E+01
0.1428051E+01  0.4202828E+00  0.1426720E+01
0.1513790E+01  0.3782958E+00  0.1506595E+01
0.1547789E+01  0.4092466E+00  0.1537996E+01
0.1535154E+01  0.3889763E+00  0.1526292E+01
0.1512699E+01  0.4170463E+00  0.1505818E+01
0.1441554E+01  0.3983607E+00  0.1439405E+01
0.1395941E+01  0.3853832E+00  0.1396572E+01
0.1420578E+01  0.3854393E+00  0.1419651E+01
0.1408336E+01  0.3518173E+00  0.1408053E+01
0.1549967E+01  0.3074339E+00  0.1540773E+01
0.1651639E+01  0.4114272E+00  0.1633021E+01
0.1668616E+01  0.3788978E+00  0.1648953E+01
0.1674624E+01  0.4027285E+00  0.1654349E+01
0.1706988E+01  0.4343785E+00  0.1683372E+01
0.1673984E+01  0.4357547E+00  0.1653126E+01
0.1695270E+01  0.4139894E+00  0.1673035E+01
0.1737273E+01  0.4034108E+00  0.1711032E+01
0.1645630E+01  0.3875965E+00  0.1627915E+01
0.1625874E+01  0.4052508E+00  0.1609514E+01
0.1627808E+01  0.4540126E+00  0.1611561E+01
0.1587158E+01  0.4136289E+00  0.1574217E+01
0.1633718E+01  0.4293591E+00  0.1616973E+01
0.1651607E+01  0.4466828E+00  0.1632950E+01
0.1605650E+01  0.4356658E+00  0.1591128E+01
0.1682168E+01  0.4808869E+00  0.1659747E+01
0.1671711E+01  0.4594749E+00  0.1651000E+01
0.1698428E+01  0.4596870E+00  0.1675468E+01
0.1646221E+01  0.4851828E+00  0.1627362E+01
0.1607747E+01  0.4151289E+00  0.1593019E+01
0.1584205E+01  0.4841185E+00  0.1570650E+01
0.1747573E+01  0.4622079E+00  0.1720280E+01
0.1568396E+01  0.4481495E+00  0.1556588E+01
0.1601760E+01  0.4629165E+00  0.1587551E+01
0.1723356E+01  0.4540167E+00  0.1698194E+01
0.1732897E+01  0.4294241E+00  0.1706733E+01
0.1722218E+01  0.4972746E+00  0.1696461E+01
0.1715121E+01  0.4754441E+00  0.1690214E+01
0.1584567E+01  0.4345797E+00  0.1571807E+01
0.1563465E+01  0.4258523E+00  0.1552607E+01
0.1534166E+01  0.4440258E+00  0.1525212E+01
0.1615090E+01  0.4918227E+00  0.1599019E+01
0.1717469E+01  0.4134541E+00  0.1693096E+01
0.1718488E+01  0.3909170E+00  0.1693880E+01
0.1741353E+01  0.3769080E+00  0.1714951E+01
0.1781199E+01  0.4241746E+00  0.1751381E+01
0.2000000E+01  0.2500000E+00  0.1960359E+01
0.1756308E+01  0.4199875E+00  0.1728514E+01
0.1762447E+01  0.3937207E+00  0.1734268E+01
0.1765097E+01  0.4438197E+00  0.1736382E+01
0.1807974E+01  0.4625425E+00  0.1775502E+01
0.1789176E+01  0.4471344E+00  0.1758352E+01
0.1514158E+01  0.1287364E+00  0.1499812E+01
0.1777674E+01  0.4803377E+00  0.1747972E+01
0.1811145E+01  0.4395021E+00  0.1779026E+01
0.1850404E+01  0.4566449E+00  0.1815628E+01
0.1748483E+01  0.3522599E+00  0.1721690E+01
0.1731235E+01  0.3304535E+00  0.1706120E+01
0.1777870E+01  0.3654441E+00  0.1748858E+01
0.1748149E+01  0.2821176E+00  0.1721416E+01
0.1732875E+01  0.3039003E+00  0.1707580E+01
0.1708314E+01  0.2807181E+00  0.1685410E+01
0.1767650E+01  0.3193756E+00  0.1739571E+01
0.1372661E+01  0.1704076E+00  0.1369914E+01
0.1411157E+01  0.2494459E+00  0.1410236E+01
0.1448000E+01  0.2246098E+00  0.1444654E+01
0.1360382E+01  0.2278583E+00  0.1361360E+01
0.1433680E+01  0.2431125E+00  0.1431539E+01
0.1388814E+01  0.2314916E+00  0.1388552E+01
0.1314549E+01  0.2124991E+00  0.1317250E+01
0.1404157E+01  0.2007613E+00  0.1402378E+01
0.1415035E+01  0.1072182E+00  0.1402969E+01
0.1520299E+01  0.1091515E+00  0.1501777E+01
0.1459010E+01  0.1690672E+00  0.1452455E+01
0.1436337E+01  0.2690050E+00  0.1434119E+01
0.1443480E+01  0.1263360E+00  0.1433524E+01
0.1625000E+01  0.0000000E+00  0.1593459E+01
0.1414954E+01  0.2197329E+00  0.1413073E+01
0.1335299E+01  0.2266424E+00  0.1337338E+01
0.1396801E+01  0.1612344E+00  0.1392054E+01
0.1792033E+01  0.3934232E+00  0.1761748E+01
0.1541310E+01  0.1264947E+00  0.1525322E+01
0.1483859E+01  0.1256971E+00  0.1470330E+01
0.1500341E+01  0.1139400E+00  0.1483994E+01
0.1498380E+01  0.1421255E+00  0.1486314E+01
0.1478242E+01  0.1468909E+00  0.1468539E+01
0.1453147E+01  0.1972183E+00  0.1448532E+01
0.1348833E+01  0.2067866E+00  0.1349770E+01
0.1368157E+01  0.2800764E+00  0.1369589E+01
0.1250000E+01  0.0000000E+00  0.1232630E+01
0.1496272E+01  0.2780308E-01  0.1469533E+01
0.1430228E+01  0.1622338E+00  0.1423912E+01
0.1544491E+01  0.1012427E+00  0.1523003E+01
0.1505524E+01  0.5428530E-01  0.1480149E+01
0.1576405E+01  0.1180891E+00  0.1556657E+01
0.1526885E+01  0.8834234E-01  0.1502917E+01
0.1558557E+01  0.6358195E-01  0.1531810E+01
0.1372206E+01  0.9428859E-01  0.1358477E+01
0.1414069E+01  0.8636887E-01  0.1397689E+01
0.1351230E+01  0.1581055E+00  0.1348559E+01
0.1371634E+01  0.2528708E+00  0.1372695E+01
0.1392978E+01  0.2694234E+00  0.1393108E+01
0.1321668E+01  0.2603105E+00  0.1325173E+01
0.1392566E+01  0.3027057E+00  0.1392949E+01
0.1345601E+01  0.2495441E+00  0.1347791E+01
0.1349996E+01  0.1827855E+00  0.1349471E+01
0.1475238E+01  0.9618066E-01  0.1456136E+01
0.1487372E+01  0.4556180E+00  0.1482185E+01
0.1432024E+01  0.3509343E+00  0.1430209E+01
0.1619231E+01  0.5383449E+00  0.1601746E+01
0.1532505E+01  0.4233173E+00  0.1523963E+01
0.1547332E+01  0.4788657E+00  0.1537102E+01
0.1627786E+01  0.4750493E+00  0.1610817E+01
0.1750658E+01  0.4911384E+00  0.1722964E+01
0.1783313E+01  0.5336292E+00  0.1752525E+01
0.1744147E+01  0.5299352E+00  0.1716188E+01
0.1772978E+01  0.5077787E+00  0.1743121E+01
0.1739682E+01  0.5092411E+00  0.1712276E+01
0.1715917E+01  0.5251974E+00  0.1690270E+01
0.1809547E+01  0.4999146E+00  0.1776820E+01
0.1486188E+01  0.5335558E+00  0.1480372E+01
0.1695320E+01  0.5058771E+00  0.1671767E+01
0.1793562E+01  0.5145404E+00  0.1761945E+01
0.1827482E+01  0.5355643E+00  0.1793752E+01
0.1805457E+01  0.5332234E+00  0.1773078E+01
0.1812320E+01  0.5734372E+00  0.1779729E+01
0.1794794E+01  0.5557356E+00  0.1763332E+01
0.1637325E+01  0.5533192E+00  0.1618198E+01
0.1761146E+01  0.5591762E+00  0.1731998E+01
0.1789115E+01  0.5788851E+00  0.1757910E+01
0.1693317E+01  0.6123782E+00  0.1670495E+01
0.1522396E+01  0.5359490E+00  0.1513655E+01
0.1814654E+01  0.6254783E+00  0.1781955E+01
0.1726166E+01  0.5505978E+00  0.1699419E+01
0.1691322E+01  0.5307786E+00  0.1667974E+01
0.1516987E+01  0.5143680E+00  0.1509080E+01
0.1661909E+01  0.5147686E+00  0.1640754E+01
0.1761865E+01  0.6508066E+00  0.1733161E+01
0.1692174E+01  0.5698207E+00  0.1668819E+01
0.1780214E+01  0.6037461E+00  0.1749902E+01
[...]
POINT_DATA    3280
SCALARS hauteur float
LOOKUP_TABLE DEFAULT
       2.3708106E-02
       1.7240158E-04
       3.1346256E-04
       2.3716428E-02
       1.2768311E-02
       1.1816823E-02
       2.3757522E-02
       2.4011781E-03
       9.8811653E-03
       2.3836270E-02
       2.3304645E-02
       1.8949201E-02
       1.9784819E-02
       2.0512472E-02
       2.1107255E-02
       3.1195027E-04
       2.0759844E-02
       2.2828491E-02
       1.1428539E-02
       1.8033266E-02
       2.2129097E-02
       2.1461399E-02
       2.4424920E-02
       2.1868311E-02
       2.2643334E-02
       2.3365697E-02
       2.2749901E-02
       1.8057370E-02
       2.5675373E-02
       2.1856108E-02
       2.4534236E-02
       2.2463584E-02
       2.3718092E-02
       2.5671957E-02
       1.6567685E-02
       2.0580983E-02
       2.0271742E-02
       1.7729912E-02
       1.6207597E-02
       2.1756612E-02
       1.9095334E-02
       1.6350111E-02
       1.4872479E-02
       1.7209688E-02
       1.2878798E-02
       1.5418118E-02
       2.2606281E-02
       1.3990526E-02
       1.6211358E-02
       1.9405431E-02
       1.7585206E-02
       1.8650332E-02
       1.4514344E-02
       2.4542635E-02
       2.3102032E-02
       2.4946112E-02
       1.9768515E-02
       1.4478751E-02
       2.0578702E-02
       1.3086080E-02
       1.6843209E-02
       1.5909061E-02
       1.9232626E-02
       1.0964119E-02
       1.7796695E-02
       1.7789423E-02
       1.5401071E-02
       4.0885034E-04
       2.3985875E-02
       1.1267991E-02
       1.9909882E-02
       1.2606868E-02
       1.1478429E-02
       1.6293020E-02
       8.0171605E-03
       2.4772224E-02
       2.4913323E-02
       2.6390510E-02
       2.5369197E-02
       2.4892795E-02
       2.6840437E-02
       2.5585165E-02
       2.5999100E-02
       2.5892104E-02
       2.6772813E-02
       2.4297281E-02
       2.7135445E-02
       2.2980130E-02
       2.1059437E-02
       2.1738589E-02
       2.3272005E-02
       2.6585692E-02
       2.8457035E-02
       2.7389938E-02
       2.7790704E-02
       2.1702347E-02
       1.4305080E-02
       1.3598804E-02
       1.3105043E-02
       1.0410057E-02
       1.2510410E-02
       1.1557978E-02
       8.3890052E-03
       1.5087838E-02
       1.6048569E-02
       1.6201609E-02
       1.8695886E-02
       1.5821425E-02
       1.4264737E-02
       1.7483807E-02
       1.1109738E-02
       1.2611160E-02
       1.0895898E-02
       1.3955861E-02
       1.7320064E-02
       1.8024066E-02
       7.5423560E-03
       1.9455297E-02
       1.7718698E-02
       9.1909377E-03
       8.3783641E-03
       8.5724824E-03
       9.2810469E-03
       1.8825409E-02
       2.0306796E-02
       2.1627026E-02
       1.6123436E-02
       9.8628178E-03
       9.6473973E-03
       8.3088453E-03
       5.6865186E-03
       2.2624725E-04
       7.2154256E-03
       6.9521074E-03
       6.4699007E-03
       3.5670647E-03
       4.8406692E-03
       1.5836177E-02
       5.7339248E-03
       3.9833218E-03
       2.1089343E-03
       8.0609437E-03
       9.3947880E-03
       6.4274457E-03
       8.1138749E-03
       9.2470736E-03
       1.1148278E-02
       7.1561968E-03
       2.4614658E-02
       2.7208578E-02
       2.5517824E-02
       2.8095084E-02
       2.6437600E-02
       2.7422327E-02
       2.8904321E-02
       2.6210697E-02
       1.6140362E-02
       1.1782493E-02
       2.2528798E-02
       2.6413618E-02
       1.8817932E-02
       8.5079853E-04
       2.6323820E-02
       2.8656147E-02
       2.3096026E-02
       5.4370919E-03
       1.4735208E-02
       1.6049119E-02
       1.3559823E-02
       1.7802258E-02
       1.9763101E-02
       2.4350959E-02
       2.7823593E-02
       2.8703650E-02
       7.5472710E-03
       3.0869029E-03
       2.2192846E-02
       9.2989659E-03
       4.6349529E-03
       1.1675614E-02
       6.4683008E-03
       4.3203893E-03
       1.3623365E-02
       1.1807280E-02
       2.4263777E-02
       2.8402556E-02
       2.7896893E-02
       2.9850994E-02
       2.8141817E-02
       2.9012094E-02
       2.6384910E-02
       1.0304714E-02
       2.4461779E-02
       2.6730180E-02
       1.4792267E-02
       2.2005846E-02
       2.0613422E-02
       1.5478563E-02
       7.2025606E-03
       4.7597422E-03
       6.8083699E-03
       5.4852713E-03
       7.2722555E-03
       8.5568249E-03
       3.3440545E-03
       2.3808819E-02
       1.0239892E-02
       4.1351231E-03
       2.6979648E-03
       3.6095323E-03
       3.5349382E-03
       4.3149212E-03
       1.3510765E-02
       5.9572524E-03
       4.4580728E-03
       1.0931955E-02
       2.1605566E-02
       3.4735074E-03
       7.6611828E-03
       1.0366000E-02
       2.2331629E-02
       1.1972571E-02
       6.4159241E-03
       1.0375595E-02
       5.1744440E-03
       1.9109983E-02
       1.1573889E-02
       6.7029902E-03
       1.7637334E-02
       1.3515457E-02
       7.7100286E-03
       7.3383062E-03
       1.0276977E-02
       1.0780091E-02
       3.1775852E-03
       5.0405936E-03
       4.8404322E-04
       8.5656940E-03
       2.0501674E-03
       5.4354002E-03
       6.1649602E-03
       1.2422769E-02
       9.5552072E-03
       4.4568637E-03
       2.9258253E-03
       2.9966713E-03
       3.9679663E-03
       4.8087845E-03
       4.9478558E-03
       6.5459641E-03
       1.8330553E-02
       2.6836655E-02
       1.3305899E-02
       1.5666258E-02
       1.8235934E-02
       2.1440346E-02
       4.1189793E-03
       6.5616685E-03
       3.9152288E-03
       1.6540731E-03
       1.4421793E-03
       2.2662200E-03
       7.7944350E-03
       7.3345179E-03
       1.6572552E-03
       1.1201862E-02
       3.1989166E-03
       1.0122318E-02
       2.3239039E-03
       5.7941093E-04
       6.5268740E-03
       1.4415618E-02
       1.3222290E-02
       1.5572185E-02
       6.5337627E-03
       1.5916141E-02
       2.1826930E-02
       2.0176254E-02
       2.6073903E-02
       2.4419607E-02
       2.1381856E-02
       2.5065205E-02
       1.0706224E-02
       4.7107352E-03
       2.0802623E-02
       7.2404626E-03
       1.9804025E-02
       4.7344379E-03
       2.7475453E-02
       2.7531046E-02
       2.8467236E-02
       2.8876384E-02
       2.9547191E-02
       2.4261529E-02
       2.2981109E-02
       2.5721845E-02
       2.2019522E-02
       2.2077062E-02
       1.6844363E-02
       2.0493224E-02
       1.3121664E-02
       2.0643276E-02
       1.9299389E-02
       4.1921745E-03
       2.8756685E-03
       2.3840231E-03
       5.7443141E-03
       1.2293016E-02
       2.6907889E-03
       3.8553691E-03
       1.3984256E-02
       1.6980768E-02
       4.1290240E-03
       1.0523380E-02
       4.2745401E-03
       8.8946427E-03
       7.0411789E-03
       8.8136646E-03
       8.3991570E-03
       4.0681198E-03
       2.2892751E-03
       9.6525543E-05
       5.5680868E-03
       1.3292845E-03
       8.2076435E-03
       4.8559163E-03
       1.3780083E-02
       4.1268246E-04
       2.7938909E-03
       7.1433072E-03
       6.5041291E-03
       1.2120837E-02
       8.8718436E-03
       2.6132918E-03
       1.5721852E-02
       1.2313136E-03
       1.0696453E-02
       1.9173891E-02
       1.1150773E-03
       6.1928334E-04
       1.2209897E-02
       1.2662859E-02
       1.2499053E-02
       1.2163590E-02
       6.6421619E-03
       1.5199642E-02
       1.4452306E-02
       1.4264379E-02
       1.6431292E-02
       1.3749692E-02
       8.7419246E-03
       1.2383983E-02
       1.1008973E-02
       4.1319757E-04
       2.7853300E-03
       2.8730534E-03
       4.1627576E-03
       2.2890310E-03
       2.3312564E-03
       1.0503857E-03
       1.0349498E-03
       7.1222927E-04
       1.2591117E-02
       1.4904761E-02
       1.4575026E-02
       1.1307361E-02
       1.6125662E-02
       9.4891898E-03
       3.5051692E-03
       7.5712089E-03
       4.0792589E-03
       2.9422146E-03
       1.9640400E-03
       3.0256380E-03
       3.7459418E-03
       2.7074517E-02
       3.0323628E-02
       2.8841331E-02
       2.9630264E-02
       3.0574448E-02
       2.9359605E-02
       3.0277472E-02
       3.1441675E-02
       3.0996322E-02
       3.2076321E-02
       3.0671047E-02
       3.1632104E-02
       3.2842259E-02
       3.2166579E-02
       3.2052993E-02
       3.2068379E-02
       3.1216847E-02
       2.9879487E-02
       2.9328830E-02
       2.9427487E-02
       2.9290343E-02
       3.0266991E-02
       3.0963624E-02
       3.1028521E-02
       2.7678018E-02
       2.4720943E-02
       2.7840336E-02
       2.6318781E-02
       2.4909656E-02
       2.9264798E-02
       3.0575203E-02
       3.0255867E-02
       2.9712348E-02
       2.9533412E-02
       3.0304893E-02
       3.1894520E-02
       3.1227910E-02
       2.9116558E-02
       3.1023979E-02
       3.1730663E-02
       3.2024748E-02
       3.1287211E-02
       2.9727519E-02
       3.0137265E-02
       3.3511641E-02
       3.1297346E-02
       3.3314682E-02
       3.2697981E-02
       3.2685244E-02
       3.2827125E-02
       3.4001364E-02
       3.3391140E-02
       3.3312787E-02
       3.2585556E-02
       3.3208645E-02
       3.4476532E-02
       3.3792549E-02
       3.4218373E-02
       3.3205872E-02
       3.5410980E-02
       3.2643032E-02
       3.4645588E-02
       3.1385554E-02
       3.3879503E-02
       3.4896334E-02
       3.5756050E-02
       3.5539206E-02
       3.6686025E-02
       3.6095573E-02
       3.5455113E-02
       3.4409925E-02
       3.2301169E-02
       3.3222735E-02
       3.6152553E-02
       3.6414548E-02
       3.6511389E-02
       3.7546349E-02
       3.7097299E-02
       3.5193049E-02
       3.6918054E-02
       3.1590668E-02
       3.3041803E-02
       3.6956144E-02
       3.6980180E-02
       3.6106923E-02
       3.6779051E-02
       3.7258245E-02
       3.0387779E-02
       3.2964565E-02
       3.8031628E-02
       3.2157041E-02
       3.4414687E-02
       3.7562702E-02
       3.7831303E-02
       3.0417302E-02
       3.3831818E-02
       3.4546556E-02
       3.7363459E-02
       3.7815745E-02
       3.7757707E-02
       3.8782019E-02
       3.8373977E-02
       3.1246178E-02
       3.0337452E-02
       3.1700702E-02
       2.8217937E-02
       3.1805156E-02
       2.9370122E-02
       2.9544150E-02
       2.9107055E-02
       3.8533030E-02
       3.9520535E-02
       2.8128975E-02
       3.8226448E-02
       3.8939228E-02
       3.8117742E-02
       3.9065851E-02
       2.6936742E-02
       2.8607829E-02
       2.7648701E-02
       2.5925708E-02
       2.7017645E-02
       2.7126807E-02
       3.8670770E-02
       3.8152257E-02
       3.9144801E-02
       3.8128470E-02
       2.5975649E-02
       2.4863967E-02
       3.7848807E-02
       3.9618044E-02
       3.8761409E-02
       3.6887203E-02
       2.5059702E-02
       3.9289240E-02
       3.7471317E-02
       3.6764156E-02
       2.6380674E-02
       3.8697586E-02
       3.9400434E-02
       3.7876243E-02
       4.0435206E-02
       3.7982901E-02
       4.0024709E-02
       3.9966651E-02
       4.0017097E-02
       4.0397554E-02
       4.0043917E-02
       3.9589868E-02
       3.9541330E-02
       4.0906334E-02
       4.0461183E-02
       4.1035405E-02
       4.0569473E-02
       4.0841940E-02
       2.6023357E-02
       3.1685760E-03
       2.0926185E-03
       9.7748734E-04
       1.5622206E-03
       1.0103346E-03
       1.4371916E-03
       1.3059293E-03
       1.7792154E-03
       1.9728258E-03
       1.7099252E-03
       2.2661090E-03
       2.3696577E-04
       3.5773138E-04
       1.1203468E-03
       1.2366650E-03
       8.1630635E-04
       5.4227108E-04
       1.2912806E-03
       3.7651582E-04
       4.3265407E-04
       8.6429393E-04
       5.9815194E-04
       3.5505986E-04
       5.3086471E-04
       2.3536516E-04
       2.3733147E-02
       1.2395695E-02
       1.1408259E-02
       1.4242607E-02
       1.2950416E-02
       1.3342452E-02
       1.5252374E-02
       2.0858861E-02
       1.7992542E-02
       2.0349050E-02
       2.1562072E-02
       1.8685135E-02
       1.9777942E-02
       1.7222599E-02
       2.0406217E-02
       2.2139971E-02
       2.1842303E-02
       2.3202934E-02
       2.4337325E-02
       2.3626517E-02
       2.1802305E-02
       1.9339176E-02
       2.0561069E-02
       2.0434352E-02
       2.0889874E-02
       2.2776136E-02
       2.1626428E-02
       2.0802460E-02
       2.1800167E-02
       2.0961228E-02
       2.2169135E-02
       1.8728207E-02
       2.1920932E-02
       1.9891737E-02
       2.3453713E-02
       2.0938962E-02
       2.2859683E-02
       2.4013732E-02
       2.0766358E-02
       2.1004819E-02
       2.2331829E-02
       2.3794443E-02
       2.5431897E-02
       2.4515570E-02
       2.3657103E-02
       2.6051593E-02
       2.4252021E-02
       2.5089861E-02
       2.4410735E-02
       2.3372693E-02
       2.5187419E-02
       2.4875525E-02
       2.6445323E-02
       2.4654835E-02
       2.5732391E-02
       2.7907106E-02
       2.6876933E-02
       2.8212919E-02
       5.5389848E-03
       7.1404966E-03
       8.5852470E-03
       9.4047096E-03
       9.2768683E-03
       9.6591310E-03
       3.0008139E-03
       8.1157257E-04
       3.4737740E-03
       1.5402851E-03
       1.0331024E-02
       1.6248196E-02
       1.0436079E-02
       9.0468248E-03
       1.2982567E-02
       1.3514199E-02
       1.1336556E-02
       8.8127092E-03
       9.2813137E-03
       1.0578514E-02
       1.1075330E-02
       1.3191297E-02
       7.3638645E-03
       5.8146960E-03
       7.6453578E-03
       7.4009444E-03
       5.5630714E-03
       6.3405147E-03
       7.4753688E-03
       3.5038509E-03
       3.3026569E-03
       4.8966929E-03
       3.4967738E-03
       4.4066919E-03
       4.5298601E-03
       8.7101741E-03
       3.5768727E-03
       5.0712107E-03
       2.7500545E-03
       1.3234499E-03
       1.3492486E-03
       8.4384337E-04
       1.6331825E-02
       1.8373380E-02
       1.8220207E-02
       4.2105581E-03
       5.0285371E-03
       5.8561626E-03
       3.4884976E-03
       3.6128605E-03
       2.3057269E-03
       2.7817285E-02
       2.7138709E-02
       2.9042402E-02
       2.7149735E-02
       2.9209477E-02
       2.5362037E-02
       3.0444246E-02
       2.4854985E-02
       3.1571227E-02
       3.0238285E-02
       2.7110222E-02
       2.8475010E-02
       1.6838737E-02
       3.1155257E-02
       2.1740942E-02
       2.2113642E-02
       1.0621669E-02
       2.0737469E-02
       3.2235354E-02
       1.4107113E-02
       9.8180294E-03
       1.4069717E-02
       1.3536761E-02
       3.0762870E-02
       3.2239502E-02
       2.3987249E-02
       2.2419132E-02
       3.0856562E-02
       3.3593797E-02
       3.3906232E-02
       3.0722670E-02
       3.3694874E-02
       3.5932128E-02
       3.5213017E-02
       3.8551085E-02
       3.7254736E-02
       3.9232469E-02
       3.8625787E-02
       3.9206474E-02
       3.8543847E-02
       3.9226780E-02
       4.0333354E-02
       3.9780150E-02
       3.9817117E-02
       3.9884029E-02
       3.6963368E-02
       3.7605991E-02
       3.6024858E-02
       3.7316469E-02
       3.9931579E-02
       4.0131196E-02
       3.9359039E-02
       3.9146010E-02
       3.9512173E-02
       4.0677876E-02
       4.1824777E-02
       1.8820507E-03
       4.4321139E-04
       7.3648564E-04
       3.4849414E-04
       1.5029243E-02
       1.6186102E-02
       1.4523382E-02
       1.6355309E-02
       1.5727092E-02
       2.3133436E-02
       2.6256533E-02
       2.5625268E-02
       1.7563808E-02
       1.6351246E-02
       1.7955724E-02
       2.3143171E-02
       2.2442046E-02
       2.0868852E-02
       2.6030093E-02
       2.9371509E-02
       1.2610591E-03
       6.7707049E-04
       1.9772738E-03
       9.7584601E-04
       1.2442499E-03
       3.4114961E-03
       3.3235370E-04
       1.1306517E-03
       1.3562406E-04
       2.5015013E-04
       3.8844722E-04
       5.7123905E-04
       1.9755758E-04
       5.3169695E-04
       1.4621262E-04
       5.2170984E-03
       6.8068722E-03
       1.6451585E-03
       2.2582055E-03
       1.4079844E-02
       1.5367931E-02
       1.7435986E-02
       1.7937104E-02
       1.7913255E-02
       1.9314385E-02
       1.9434618E-02
       8.7718530E-03
       8.1951909E-03
       1.2023796E-02
       1.3117956E-02
       3.9515885E-03
       1.0101923E-02
       1.1334589E-02
       2.2799184E-03
       1.0448902E-02
       1.3077146E-02
       1.4788876E-02
       1.4732606E-02
       1.5972377E-02
       1.4384590E-02
       6.5084841E-04
       1.6390373E-02
       1.2356649E-02
       1.5988189E-02
       1.1266178E-02
       1.1550556E-02
       1.0894859E-02
       4.5990136E-03
       7.7960269E-03
       5.8486794E-03
       7.0353524E-03
       5.5563668E-03
       2.4364629E-03
       1.0553690E-03
       1.5491740E-02
       1.4546502E-02
       1.6992933E-02
       5.7910533E-03
       6.0144716E-03
       5.1034514E-03
       7.7045125E-03
       6.6506790E-03
       5.9153523E-03
       9.6842648E-03
       2.8649350E-03
       8.3532649E-04
       6.2774728E-04
       2.2031730E-02
       1.7102107E-02
       1.0771881E-02
       1.3174341E-02
       1.0462142E-02
       1.5487274E-02
       1.8201811E-02
       1.7304414E-02
       3.3056162E-02
       3.5116316E-02
       3.5284800E-02
       3.5446600E-02
       3.5492222E-02
       3.6059213E-02
       3.4543476E-02
       3.4300363E-02
       3.5081751E-02
       3.4280709E-02
       3.8545723E-02
       3.8420358E-02
       4.3493315E-02
       3.8319642E-02
       3.6733731E-02
       4.1013292E-02
       4.0253173E-02
       4.1074199E-02
       4.0271805E-02
       3.8908717E-02
       4.2139833E-02
       3.4031093E-02
       4.1754752E-02
       4.2870622E-02
       3.6985619E-02
       3.2958673E-02
       4.2895871E-02
       4.2553528E-02
       4.0672327E-02
       4.0996908E-02
       4.1211774E-02
       3.4329424E-02
       4.2119217E-02
       3.7109750E-02
       4.1655339E-02
       3.5828992E-02
       4.2510285E-02
       4.1481803E-02
       4.2088974E-02
       4.1755123E-02
       4.2269430E-02
       4.0790184E-02
       4.2852770E-02
       3.8847438E-02
       4.2557456E-02
       3.8416234E-02
       3.7590230E-02
       4.2354156E-02
       4.2866046E-02
       3.9037369E-02
       3.7564934E-02
       1.9243652E-02
       4.3284645E-02
       1.6939442E-02
       4.3670791E-02
       3.9324337E-02
       4.3472658E-02
       3.5624073E-02
       3.4520867E-02
       4.3536779E-02
       4.3932028E-02
       4.3913603E-02
       4.4479987E-02
       4.3241199E-02
       4.3142253E-02
       3.8444489E-02
       3.6522664E-02
       3.8044503E-02
       3.6053573E-02
       3.5453310E-02
       4.1493406E-02
       3.6956334E-02
       3.8011335E-02
       3.5039143E-02
       3.5594270E-02
       3.7145819E-02
       4.5079513E-02
       3.9578495E-02
       4.2322245E-02
       3.6565517E-02
       4.2046275E-02
       3.7058616E-02
       3.6439841E-02
       3.5407195E-02
       3.4533593E-02
       3.5896456E-02
       3.6337779E-02
       3.6523299E-02
       3.6125103E-02
       3.5594688E-02
       3.6016766E-02
       3.5117240E-02
       3.5924868E-02
       3.4405597E-02
       3.4047115E-02
       3.4712239E-02
       3.4022555E-02
       3.4690104E-02
       3.5332064E-02
       3.4818721E-02
       3.4048805E-02
       3.3341149E-02
       3.3175016E-02
       3.3059795E-02
       3.2008031E-02
       3.3596708E-02
       3.3999818E-02
       3.7563244E-02
       3.9902457E-02
       3.8961310E-02
       3.9243966E-02
       4.0409089E-02
       4.1462593E-02
       4.1207170E-02
       4.1478330E-02
       4.1240607E-02
       4.0778253E-02
       4.1615737E-02
       4.1106544E-02
       4.2165683E-02
       4.1088894E-02
       4.2066418E-02
       4.1745703E-02
       4.2479425E-02
       4.1444722E-02
       4.1464852E-02
       4.1453372E-02
       4.0489052E-02
       4.1877521E-02
       4.1027170E-02
       4.0691194E-02
       4.1688366E-02
       4.1777673E-02