# vtk DataFile Version 3.0
# Solution du M1 TR
ASCII
DATASET UNSTRUCTURED_GRID
POINTS   3280  float
0.0000000E+00  0.0000000E+00  0.3062346E-01
0.2000000E+01  0.0000000E+00  0.1960180E+01
0.2000000E+01  0.1000000E+01  0.1960294E+01
0.0000000E+00  0.1000000E+01  0.3046416E-01
0.1000000E+01  0.0000000E+00  0.9903965E+00
0.1000000E+01  0.1000000E+01  0.9901754E+00
0.1500000E+01  0.5000000E+00  0.1497484E+01
0.1500000E+01  0.0000000E+00  0.1474524E+01
0.1723284E+01  0.3570951E+00  0.1706156E+01
0.1500000E+01  0.2500000E+00  0.1495541E+01
0.1515103E+01  0.2763186E+00  0.1510472E+01
0.1594866E+01  0.2826386E+00  0.1586342E+01
0.1562500E+01  0.1875000E+00  0.1553933E+01
0.1534357E+01  0.1819434E+00  0.1526510E+01
0.1561083E+01  0.3343258E+00  0.1554684E+01
0.1750000E+01  0.0000000E+00  0.1715606E+01
0.1503267E+01  0.1622339E+00  0.1495834E+01
0.1514910E+01  0.2261192E+00  0.1509385E+01
0.1610795E+01  0.1290247E+00  0.1595180E+01
0.1539062E+01  0.1536458E+00  0.1529199E+01
0.1510772E+01  0.1982718E+00  0.1504518E+01
0.1541862E+01  0.2179813E+00  0.1534980E+01
0.1475030E+01  0.2178147E+00  0.1471054E+01
0.1539206E+01  0.2578835E+00  0.1533128E+01
0.1521085E+01  0.2465697E+00  0.1515590E+01
0.1496499E+01  0.2146241E+00  0.1491419E+01
0.1481433E+01  0.1870688E+00  0.1475851E+01
0.1586261E+01  0.1960616E+00  0.1576438E+01
0.1460896E+01  0.2899333E+00  0.1458762E+01
0.1542195E+01  0.2867649E+00  0.1536332E+01
0.1486080E+01  0.2754813E+00  0.1482676E+01
0.1536278E+01  0.3247610E+00  0.1531141E+01
0.1510131E+01  0.3295675E+00  0.1506312E+01
0.1455545E+01  0.2514402E+00  0.1453099E+01
0.1610995E+01  0.1909452E+00  0.1600055E+01
0.1564462E+01  0.2395252E+00  0.1556974E+01
0.1571524E+01  0.3026484E+00  0.1564307E+01
0.1613657E+01  0.2555806E+00  0.1603979E+01
0.1633998E+01  0.2714643E+00  0.1623111E+01
0.1534973E+01  0.3650914E+00  0.1529758E+01
0.1583157E+01  0.2286349E+00  0.1574367E+01
0.1586501E+01  0.1581416E+00  0.1575001E+01
0.1651985E+01  0.2274641E+00  0.1639771E+01
0.1619170E+01  0.2936434E+00  0.1609224E+01
0.1678889E+01  0.2641389E+00  0.1665103E+01
0.1642286E+01  0.2930521E+00  0.1630852E+01
0.1526415E+01  0.3446283E+00  0.1521726E+01
0.1662420E+01  0.3044259E+00  0.1649742E+01
0.1636786E+01  0.2469276E+00  0.1625734E+01
0.1588953E+01  0.3366240E+00  0.1581036E+01
0.1616427E+01  0.3314099E+00  0.1606858E+01
0.1598305E+01  0.3102698E+00  0.1589662E+01
0.1655410E+01  0.2614708E+00  0.1643118E+01
0.1487553E+01  0.3072167E+00  0.1484479E+01
0.1520126E+01  0.3036443E+00  0.1515568E+01
0.1477894E+01  0.2544664E+00  0.1474647E+01
0.1567847E+01  0.2133479E+00  0.1559450E+01
0.1663947E+01  0.3299725E+00  0.1651459E+01
0.1567022E+01  0.2696000E+00  0.1559869E+01
0.1678598E+01  0.3509559E+00  0.1664859E+01
0.1611933E+01  0.3827205E+00  0.1602346E+01
0.1640491E+01  0.3197373E+00  0.1629414E+01
0.1588015E+01  0.2526666E+00  0.1579569E+01
0.1708471E+01  0.3144917E+00  0.1692542E+01
0.1606944E+01  0.3564315E+00  0.1597824E+01
0.1604614E+01  0.2314093E+00  0.1594867E+01
0.1643491E+01  0.3631133E+00  0.1632117E+01
0.2000000E+01  0.5000000E+00  0.1960478E+01
0.1494727E+01  0.3621796E+00  0.1491529E+01
0.1701807E+01  0.3477237E+00  0.1686237E+01
0.1572156E+01  0.3701847E+00  0.1565099E+01
0.1688392E+01  0.3285111E+00  0.1674127E+01
0.1695932E+01  0.3904821E+00  0.1680750E+01
0.1636337E+01  0.3418163E+00  0.1625617E+01
0.1505941E+01  0.9448485E-01  0.1487460E+01
0.1423727E+01  0.1910920E+00  0.1420487E+01
0.1481447E+01  0.3359634E+00  0.1478928E+01
0.1441613E+01  0.3726133E+00  0.1440993E+01
0.1466699E+01  0.3599060E+00  0.1464900E+01
0.1476682E+01  0.4107296E+00  0.1474631E+01
0.1434448E+01  0.3273535E+00  0.1433947E+01
0.1464523E+01  0.3867258E+00  0.1463021E+01
0.1456903E+01  0.3373583E+00  0.1455542E+01
0.1454188E+01  0.3132491E+00  0.1452616E+01
0.1424069E+01  0.2919612E+00  0.1423406E+01
0.1490969E+01  0.3884111E+00  0.1488166E+01
0.1428051E+01  0.4202828E+00  0.1428308E+01
0.1513790E+01  0.3782958E+00  0.1509730E+01
0.1547789E+01  0.4092466E+00  0.1542191E+01
0.1535154E+01  0.3889763E+00  0.1530062E+01
0.1512699E+01  0.4170463E+00  0.1509019E+01
0.1441554E+01  0.3983607E+00  0.1441136E+01
0.1395941E+01  0.3853832E+00  0.1397440E+01
0.1420578E+01  0.3854393E+00  0.1420976E+01
0.1408336E+01  0.3518173E+00  0.1409062E+01
0.1549967E+01  0.3074339E+00  0.1544022E+01
0.1651639E+01  0.4114272E+00  0.1639813E+01
0.1668616E+01  0.3788978E+00  0.1655517E+01
0.1674624E+01  0.4027285E+00  0.1661285E+01
0.1706988E+01  0.4343785E+00  0.1691306E+01
0.1673984E+01  0.4357547E+00  0.1660629E+01
0.1695270E+01  0.4139894E+00  0.1680470E+01
0.1737273E+01  0.4034108E+00  0.1718800E+01
0.1645630E+01  0.3875965E+00  0.1634219E+01
0.1625874E+01  0.4052508E+00  0.1615647E+01
0.1627808E+01  0.4540126E+00  0.1618012E+01
0.1587158E+01  0.4136289E+00  0.1579332E+01
0.1633718E+01  0.4293591E+00  0.1623390E+01
0.1651607E+01  0.4466828E+00  0.1640112E+01
0.1605650E+01  0.4356658E+00  0.1596962E+01
0.1682168E+01  0.4808869E+00  0.1668273E+01
0.1671711E+01  0.4594749E+00  0.1658902E+01
0.1698428E+01  0.4596870E+00  0.1683650E+01
0.1646221E+01  0.4851828E+00  0.1635098E+01
0.1607747E+01  0.4151289E+00  0.1598699E+01
0.1584205E+01  0.4841185E+00  0.1576921E+01
0.1747573E+01  0.4622079E+00  0.1728502E+01
0.1568396E+01  0.4481495E+00  0.1561814E+01
0.1601760E+01  0.4629165E+00  0.1593596E+01
0.1723356E+01  0.4540167E+00  0.1706449E+01
0.1732897E+01  0.4294241E+00  0.1714781E+01
0.1722218E+01  0.4972746E+00  0.1705332E+01
0.1715121E+01  0.4754441E+00  0.1698861E+01
0.1584567E+01  0.4345797E+00  0.1577131E+01
0.1563465E+01  0.4258523E+00  0.1557235E+01
0.1534166E+01  0.4440258E+00  0.1529438E+01
0.1615090E+01  0.4918227E+00  0.1606114E+01
0.1717469E+01  0.4134541E+00  0.1700803E+01
0.1718488E+01  0.3909170E+00  0.1701408E+01
0.1741353E+01  0.3769080E+00  0.1722484E+01
0.1781199E+01  0.4241746E+00  0.1758535E+01
0.2000000E+01  0.2500000E+00  0.1960350E+01
0.1756308E+01  0.4199875E+00  0.1736258E+01
0.1762447E+01  0.3937207E+00  0.1741753E+01
0.1765097E+01  0.4438197E+00  0.1744147E+01
0.1807974E+01  0.4625425E+00  0.1781071E+01
0.1789176E+01  0.4471344E+00  0.1765206E+01
0.1514158E+01  0.1287364E+00  0.1502807E+01
0.1777674E+01  0.4803377E+00  0.1755506E+01
0.1811145E+01  0.4395021E+00  0.1784986E+01
0.1850404E+01  0.4566449E+00  0.1818768E+01
0.1748483E+01  0.3522599E+00  0.1729025E+01
0.1731235E+01  0.3304535E+00  0.1713458E+01
0.1777870E+01  0.3654441E+00  0.1755963E+01
0.1748149E+01  0.2821176E+00  0.1728870E+01
0.1732875E+01  0.3039003E+00  0.1714948E+01
0.1708314E+01  0.2807181E+00  0.1692593E+01
0.1767650E+01  0.3193756E+00  0.1746678E+01
0.1372661E+01  0.1704076E+00  0.1369871E+01
0.1411157E+01  0.2494459E+00  0.1410467E+01
0.1448000E+01  0.2246098E+00  0.1445213E+01
0.1360382E+01  0.2278583E+00  0.1361011E+01
0.1433680E+01  0.2431125E+00  0.1432036E+01
0.1388814E+01  0.2314916E+00  0.1388470E+01
0.1314549E+01  0.2124991E+00  0.1316489E+01
0.1404157E+01  0.2007613E+00  0.1402379E+01
0.1415035E+01  0.1072182E+00  0.1404528E+01
0.1520299E+01  0.1091515E+00  0.1505519E+01
0.1459010E+01  0.1690672E+00  0.1453407E+01
0.1436337E+01  0.2690050E+00  0.1434933E+01
0.1443480E+01  0.1263360E+00  0.1434909E+01
0.1625000E+01  0.0000000E+00  0.1594611E+01
0.1414954E+01  0.2197329E+00  0.1413279E+01
0.1335299E+01  0.2266424E+00  0.1336763E+01
0.1396801E+01  0.1612344E+00  0.1392437E+01
0.1792033E+01  0.3934232E+00  0.1768590E+01
0.1541310E+01  0.1264947E+00  0.1528775E+01
0.1483859E+01  0.1256971E+00  0.1472735E+01
0.1500341E+01  0.1139400E+00  0.1487197E+01
0.1498380E+01  0.1421255E+00  0.1488640E+01
0.1478242E+01  0.1468909E+00  0.1470185E+01
0.1453147E+01  0.1972183E+00  0.1449235E+01
0.1348833E+01  0.2067866E+00  0.1349308E+01
0.1368157E+01  0.2800764E+00  0.1369565E+01
0.1250000E+01  0.0000000E+00  0.1232576E+01
0.1496272E+01  0.2780308E-01  0.1471933E+01
0.1430228E+01  0.1622338E+00  0.1424695E+01
0.1544491E+01  0.1012427E+00  0.1527104E+01
0.1505524E+01  0.5428530E-01  0.1483200E+01
0.1576405E+01  0.1180891E+00  0.1560835E+01
0.1526885E+01  0.8834234E-01  0.1506699E+01
0.1558557E+01  0.6358195E-01  0.1535399E+01
0.1372206E+01  0.9428859E-01  0.1359634E+01
0.1414069E+01  0.8636887E-01  0.1399520E+01
0.1351230E+01  0.1581055E+00  0.1348434E+01
0.1371634E+01  0.2528708E+00  0.1372503E+01
0.1392978E+01  0.2694234E+00  0.1393272E+01
0.1321668E+01  0.2603105E+00  0.1324542E+01
0.1392566E+01  0.3027057E+00  0.1393354E+01
0.1345601E+01  0.2495441E+00  0.1347330E+01
0.1349996E+01  0.1827855E+00  0.1349110E+01
0.1475238E+01  0.9618066E-01  0.1459134E+01
0.1487372E+01  0.4556180E+00  0.1485139E+01
0.1432024E+01  0.3509343E+00  0.1431695E+01
0.1619231E+01  0.5383449E+00  0.1609870E+01
0.1532505E+01  0.4233173E+00  0.1527821E+01
0.1547332E+01  0.4788657E+00  0.1542139E+01
0.1627786E+01  0.4750493E+00  0.1617785E+01
0.1750658E+01  0.4911384E+00  0.1731346E+01
0.1783313E+01  0.5336292E+00  0.1759590E+01
0.1744147E+01  0.5299352E+00  0.1724819E+01
0.1772978E+01  0.5077787E+00  0.1750748E+01
0.1739682E+01  0.5092411E+00  0.1720960E+01
0.1715917E+01  0.5251974E+00  0.1699349E+01
0.1809547E+01  0.4999146E+00  0.1782026E+01
0.1486188E+01  0.5335558E+00  0.1484040E+01
0.1695320E+01  0.5058771E+00  0.1680742E+01
0.1793562E+01  0.5145404E+00  0.1768241E+01
0.1827482E+01  0.5355643E+00  0.1797820E+01
0.1805457E+01  0.5332234E+00  0.1778668E+01
0.1812320E+01  0.5734372E+00  0.1785207E+01
0.1794794E+01  0.5557356E+00  0.1769816E+01
0.1637325E+01  0.5533192E+00  0.1626824E+01
0.1761146E+01  0.5591762E+00  0.1740108E+01
0.1789115E+01  0.5788851E+00  0.1764580E+01
0.1693317E+01  0.6123782E+00  0.1678832E+01
0.1522396E+01  0.5359490E+00  0.1518526E+01
0.1814654E+01  0.6254783E+00  0.1787001E+01
0.1726166E+01  0.5505978E+00  0.1708444E+01
0.1691322E+01  0.5307786E+00  0.1677148E+01
0.1516987E+01  0.5143680E+00  0.1513510E+01
0.1661909E+01  0.5147686E+00  0.1649668E+01
0.1761865E+01  0.6508066E+00  0.1740429E+01
0.1692174E+01  0.5698207E+00  0.1677933E+01
0.1780214E+01  0.6037461E+00  0.1757137E+01
[...]
POINT_DATA    3280
SCALARS hauteur float
LOOKUP_TABLE DEFAULT
       3.0623460E-02
       4.6638213E-05
       1.6039119E-04
       3.0464164E-02
       1.0329958E-02
       1.0108866E-02
       2.7383951E-02
       4.4243042E-03
       1.7222815E-02
       2.5440992E-02
       2.5569913E-02
       2.3267465E-02
       2.2578701E-02
       2.2737503E-02
       2.4718739E-02
       4.8899743E-04
       2.2531515E-02
       2.4672251E-02
       1.6493558E-02
       2.0815705E-02
       2.3860915E-02
       2.3852622E-02
       2.5426112E-02
       2.4603793E-02
       2.4825306E-02
       2.4749904E-02
       2.3948261E-02
       2.1796358E-02
       2.6986315E-02
       2.4878326E-02
       2.6218915E-02
       2.5486262E-02
       2.6283116E-02
       2.6568569E-02
       2.1172539E-02
       2.3696401E-02
       2.4109243E-02
       2.2487650E-02
       2.1683702E-02
       2.5381999E-02
       2.2767759E-02
       2.0123514E-02
       2.0715519E-02
       2.2330002E-02
       1.9680116E-02
       2.1302392E-02
       2.5738307E-02
       2.0459598E-02
       2.1574251E-02
       2.3756091E-02
       2.2652080E-02
       2.3217104E-02
       2.0706012E-02
       2.6578178E-02
       2.5742694E-02
       2.6212372E-02
       2.2855396E-02
       2.0679770E-02
       2.4082692E-02
       1.9720989E-02
       2.2544047E-02
       2.1623824E-02
       2.3208672E-02
       1.8127277E-02
       2.2911768E-02
       2.2238314E-02
       2.1386843E-02
       3.4517150E-04
       2.6596765E-02
       1.8352450E-02
       2.4281591E-02
       1.9390700E-02
       1.8623070E-02
       2.1897514E-02
       1.1537753E-02
       2.5138906E-02
       2.7011503E-02
       2.8116649E-02
       2.7437241E-02
       2.7383841E-02
       2.8092556E-02
       2.7690379E-02
       2.7679775E-02
       2.7415245E-02
       2.7723731E-02
       2.6917066E-02
       2.8723753E-02
       2.6115803E-02
       2.5254129E-02
       2.5508756E-02
       2.6473353E-02
       2.8316851E-02
       2.9325124E-02
       2.8715633E-02
       2.8799046E-02
       2.4952056E-02
       2.1096517E-02
       2.0162128E-02
       2.0041678E-02
       1.8344493E-02
       2.0012697E-02
       1.8993307E-02
       1.6157217E-02
       2.1392101E-02
       2.2182418E-02
       2.2652381E-02
       2.3810867E-02
       2.2238363E-02
       2.1426852E-02
       2.3317690E-02
       1.9636328E-02
       2.0513695E-02
       1.9078178E-02
       2.1691180E-02
       2.2999511E-02
       2.4295169E-02
       1.5764771E-02
       2.4680919E-02
       2.3763717E-02
       1.7445814E-02
       1.6426654E-02
       1.7443968E-02
       1.7928591E-02
       2.4149511E-02
       2.4935125E-02
       2.5853493E-02
       2.3218195E-02
       1.7569020E-02
       1.7174781E-02
       1.5842432E-02
       1.2840493E-02
       2.1703959E-04
       1.4958953E-02
       1.4437927E-02
       1.4234744E-02
       9.1367189E-03
       1.1694522E-02
       1.8831410E-02
       1.3267012E-02
       9.9427602E-03
       5.2497031E-03
       1.5395758E-02
       1.6732146E-02
       1.3532194E-02
       1.5568285E-02
       1.6615190E-02
       1.8331949E-02
       1.4263424E-02
       2.4571653E-02
       2.7439775E-02
       2.6076859E-02
       2.7745469E-02
       2.6933991E-02
       2.7339619E-02
       2.8143791E-02
       2.6210869E-02
       1.7699814E-02
       1.5523968E-02
       2.3480286E-02
       2.7227546E-02
       2.0202305E-02
       2.0024625E-03
       2.6530213E-02
       2.8080278E-02
       2.3479081E-02
       1.2278330E-02
       1.8188645E-02
       1.8453863E-02
       1.6763283E-02
       2.0127928E-02
       2.1409670E-02
       2.5054051E-02
       2.7362298E-02
       2.8679902E-02
       7.4928790E-03
       5.4872217E-03
       2.2975593E-02
       1.3399932E-02
       7.6867297E-03
       1.5853280E-02
       1.0249973E-02
       7.9092949E-03
       1.4780627E-02
       1.3638944E-02
       2.4138003E-02
       2.8210254E-02
       2.8060970E-02
       2.9220086E-02
       2.8546032E-02
       2.8551355E-02
       2.6023391E-02
       1.3302762E-02
       2.7415880E-02
       2.8216194E-02
       2.2916283E-02
       2.5863998E-02
       2.5650601E-02
       2.2446055E-02
       1.5584490E-02
       1.1825482E-02
       1.5438498E-02
       1.3112119E-02
       1.5955620E-02
       1.7636132E-02
       8.5493765E-03
       2.7477116E-02
       1.9215000E-02
       1.0431414E-02
       6.7662296E-03
       9.1999539E-03
       9.0127768E-03
       1.0798825E-02
       2.2136022E-02
       1.4067584E-02
       1.1128163E-02
       1.9269156E-02
       2.6476528E-02
       8.5197868E-03
       1.6685444E-02
       1.9540513E-02
       2.6761898E-02
       2.0886938E-02
       1.3683488E-02
       1.9489795E-02
       1.2409053E-02
       2.5016826E-02
       2.0697811E-02
       1.4996852E-02
       2.4359939E-02
       1.9419018E-02
       1.6096465E-02
       1.5199871E-02
       1.6944370E-02
       1.6494139E-02
       7.3523580E-03
       8.9003199E-03
       3.2436896E-04
       1.3486443E-02
       4.5601663E-03
       1.1797181E-02
       1.3951454E-02
       1.9356088E-02
       1.7089315E-02
       1.0720160E-02
       7.4715883E-03
       7.6122831E-03
       9.7244509E-03
       1.1121841E-02
       1.1188020E-02
       1.3567078E-02
       2.0797357E-02
       2.6583708E-02
       1.7708580E-02
       1.9220379E-02
       2.1308062E-02
       2.1861809E-02
       7.9623615E-03
       1.0785000E-02
       7.4357635E-03
       3.5320852E-03
       3.4989738E-03
       4.7142186E-03
       1.2399779E-02
       1.2675596E-02
       4.0512357E-03
       1.6992236E-02
       6.9151151E-03
       1.5743024E-02
       5.1784968E-03
       1.2697058E-03
       1.2202370E-02
       1.9477199E-02
       1.8289640E-02
       1.9940899E-02
       9.5711464E-03
       1.8073793E-02
       2.1931571E-02
       2.1510957E-02
       2.5459295E-02
       2.4107981E-02
       2.1193393E-02
       2.5116645E-02
       1.2873179E-02
       6.1902382E-03
       2.1668591E-02
       9.8549231E-03
       2.0709244E-02
       7.4880196E-03
       2.8050185E-02
       2.8362381E-02
       2.8998149E-02
       2.9466119E-02
       2.9576180E-02
       2.7148266E-02
       2.6549650E-02
       2.8014005E-02
       2.6250430E-02
       2.6459526E-02
       2.3958152E-02
       2.5780641E-02
       2.1869596E-02
       2.5424159E-02
       2.4850173E-02
       1.0457201E-02
       7.3725675E-03
       5.8959030E-03
       1.3726481E-02
       2.0743831E-02
       6.3412500E-03
       9.6088169E-03
       2.2199999E-02
       2.4162904E-02
       8.4921818E-03
       1.7963256E-02
       9.4373529E-03
       1.6926344E-02
       1.3779619E-02
       1.5197132E-02
       1.5738691E-02
       9.5157161E-03
       4.8758066E-03
       1.6303878E-04
       1.1295811E-02
       2.7101897E-03
       1.3854557E-02
       1.1465736E-02
       2.0687312E-02
       4.4861949E-04
       6.9120780E-03
       1.3181634E-02
       1.1604880E-02
       1.8695406E-02
       1.7727183E-02
       4.3216116E-03
       2.3332599E-02
       2.3931234E-03
       1.5470286E-02
       2.5271717E-02
       2.0689558E-03
       9.5303559E-04
       1.8075174E-02
       1.7527344E-02
       1.9542880E-02
       1.9793288E-02
       1.0617701E-02
       1.9592538E-02
       1.8318532E-02
       1.9353552E-02
       2.0960055E-02
       1.7958552E-02
       1.3198588E-02
       1.6442534E-02
       1.8248863E-02
       6.9584422E-04
       7.1664404E-03
       7.1382270E-03
       9.9213863E-03
       5.0190706E-03
       4.7093570E-03
       2.4122409E-03
       2.5051956E-03
       1.6487873E-03
       1.8937426E-02
       2.0357190E-02
       1.6573433E-02
       1.3850730E-02
       1.7376561E-02
       1.1238398E-02
       5.4443208E-03
       9.7938125E-03
       5.7975338E-03
       5.0207397E-03
       3.9971743E-03
       5.6296979E-03
       6.8747804E-03
       2.7596941E-02
       3.0548106E-02
       2.8974975E-02
       2.9442267E-02
       3.0253148E-02
       2.9016739E-02
       2.9781020E-02
       3.0569808E-02
       3.0367207E-02
       3.1360333E-02
       2.9857039E-02
       3.0900412E-02
       3.1724218E-02
       3.1248341E-02
       3.0878482E-02
       3.1014441E-02
       3.0194369E-02
       2.9045862E-02
       2.8650084E-02
       2.8353477E-02
       2.8365687E-02
       2.9266336E-02
       2.9719724E-02
       2.9884695E-02
       2.6806918E-02
       2.3951996E-02
       2.7089417E-02
       2.5823554E-02
       2.4280388E-02
       2.9549788E-02
       3.0496881E-02
       3.0185489E-02
       2.9946766E-02
       2.9982610E-02
       3.0416823E-02
       3.1395535E-02
       3.0968409E-02
       2.9869810E-02
       3.0890247E-02
       3.1301063E-02
       3.1449548E-02
       3.0908661E-02
       3.0216523E-02
       3.0472682E-02
       3.2414259E-02
       3.0761877E-02
       3.2271098E-02
       3.1902036E-02
       3.1850781E-02
       3.1838314E-02
       3.2646302E-02
       3.2171288E-02
       3.2008310E-02
       3.1833635E-02
       3.2229191E-02
       3.3038037E-02
       3.2588218E-02
       3.2840701E-02
       3.2099500E-02
       3.3654617E-02
       3.1841521E-02
       3.3101997E-02
       3.1104791E-02
       3.2585487E-02
       3.3310201E-02
       3.3880997E-02
       3.3746905E-02
       3.4575098E-02
       3.4153252E-02
       3.3663706E-02
       3.2857586E-02
       3.1613058E-02
       3.2198819E-02
       3.4179466E-02
       3.4266803E-02
       3.4403686E-02
       3.5054754E-02
       3.4813635E-02
       3.3480482E-02
       3.4815830E-02
       3.1223386E-02
       3.1919696E-02
       3.4646657E-02
       3.4553579E-02
       3.4182949E-02
       3.4684619E-02
       3.5013228E-02
       3.0585805E-02
       3.1920019E-02
       3.5518330E-02
       3.1466952E-02
       3.2750256E-02
       3.5188682E-02
       3.5455717E-02
       3.0579778E-02
       3.2423246E-02
       3.2900829E-02
       3.5140107E-02
       3.5541796E-02
       3.5459675E-02
       3.6250027E-02
       3.5989952E-02
       3.1009330E-02
       3.0561804E-02
       3.1207922E-02
       2.9461413E-02
       3.1278651E-02
       3.0029825E-02
       3.0129264E-02
       2.9895962E-02
       3.5979205E-02
       3.7010955E-02
       2.9350436E-02
       3.5796944E-02
       3.6216516E-02
       3.5872948E-02
       3.6561237E-02
       2.8768916E-02
       2.9636958E-02
       2.9177041E-02
       2.8438629E-02
       2.8922464E-02
       2.8979348E-02
       3.6021342E-02
       3.5537484E-02
       3.6488540E-02
       3.5839003E-02
       2.8342174E-02
       2.7865727E-02
       3.5206351E-02
       3.7009285E-02
       3.6394047E-02
       3.4825874E-02
       2.8043747E-02
       3.6989530E-02
       3.5304743E-02
       3.4712464E-02
       2.8642801E-02
       3.6415222E-02
       3.7006780E-02
       3.5763943E-02
       3.7929516E-02
       3.5812164E-02
       3.7621061E-02
       3.7468233E-02
       3.7441326E-02
       3.7653521E-02
       3.7360046E-02
       3.6899086E-02
       3.6739177E-02
       3.8276270E-02
       3.7854147E-02
       3.8545425E-02
       3.7879748E-02
       3.8136359E-02
       2.8031195E-02
       8.0809986E-03
       5.1231773E-03
       1.8982392E-03
       3.5861881E-03
       2.1102034E-03
       3.1378086E-03
       2.9088045E-03
       4.3481615E-03
       4.9524428E-03
       4.1902840E-03
       5.7489960E-03
       1.6066844E-04
       3.7270433E-04
       2.4877457E-03
       2.8819572E-03
       1.7131413E-03
       8.5976270E-04
       3.0205445E-03
       5.5022545E-04
       5.2683193E-04
       1.8824684E-03
       1.0933462E-03
       6.0051762E-04
       1.0266975E-03
       1.8252372E-04
       2.7282805E-02
       2.1192170E-02
       2.0068573E-02
       2.2368406E-02
       2.0851490E-02
       2.1480718E-02
       2.2500858E-02
       2.6086205E-02
       2.4687222E-02
       2.5449097E-02
       2.6272512E-02
       2.4832478E-02
       2.5481982E-02
       2.3861894E-02
       2.5618571E-02
       2.6400238E-02
       2.5880920E-02
       2.7107798E-02
       2.7742892E-02
       2.7060593E-02
       2.6059122E-02
       2.4505940E-02
       2.5317595E-02
       2.4490347E-02
       2.5152379E-02
       2.6004345E-02
       2.5307094E-02
       2.4257815E-02
       2.5169423E-02
       2.4656523E-02
       2.4866501E-02
       2.2956871E-02
       2.4956644E-02
       2.2919695E-02
       2.6098265E-02
       2.4014701E-02
       2.5853089E-02
       2.6726676E-02
       2.3164728E-02
       2.3681946E-02
       2.4645038E-02
       2.6737951E-02
       2.7469141E-02
       2.6925592E-02
       2.5954346E-02
       2.8063105E-02
       2.6586171E-02
       2.6868074E-02
       2.6491013E-02
       2.5459787E-02
       2.7461531E-02
       2.7365373E-02
       2.8401545E-02
       2.7417404E-02
       2.7938979E-02
       2.9097956E-02
       2.8528646E-02
       2.9385357E-02
       1.3253212E-02
       1.5866888E-02
       1.7734918E-02
       1.8656741E-02
       1.7720122E-02
       1.5088378E-02
       6.7087201E-03
       1.6180875E-03
       6.8075198E-03
       3.2971383E-03
       1.8412513E-02
       2.1610694E-02
       1.4719087E-02
       1.3298685E-02
       1.9600669E-02
       1.9773996E-02
       1.8340554E-02
       1.6187040E-02
       1.6756728E-02
       1.7569619E-02
       1.7443055E-02
       1.8894494E-02
       1.4014223E-02
       1.3180721E-02
       1.5278013E-02
       1.4978429E-02
       1.2336513E-02
       1.3664530E-02
       1.4722857E-02
       9.2276265E-03
       8.5735436E-03
       1.1739922E-02
       9.0707286E-03
       1.0982667E-02
       1.1115397E-02
       1.6288798E-02
       8.7826759E-03
       1.1315480E-02
       5.5315926E-03
       2.9985372E-03
       3.2710729E-03
       2.0104113E-03
       2.1434342E-02
       1.9007562E-02
       1.8492813E-02
       6.2786232E-03
       7.4531004E-03
       7.8988935E-03
       5.6607742E-03
       6.0095338E-03
       4.4671427E-03
       2.7213948E-02
       2.6210427E-02
       2.7850301E-02
       2.6124576E-02
       2.8064635E-02
       2.4333178E-02
       2.9169729E-02
       2.3965160E-02
       3.0197668E-02
       2.8933600E-02
       2.6032145E-02
       2.7202779E-02
       1.6092376E-02
       2.9674309E-02
       2.1138703E-02
       2.1357221E-02
       8.9962265E-03
       1.9898923E-02
       3.0869484E-02
       1.3140497E-02
       1.0767143E-02
       1.3548556E-02
       1.3356084E-02
       2.9369387E-02
       3.0742858E-02
       2.3587295E-02
       2.2280927E-02
       3.0825836E-02
       3.2401231E-02
       3.2507253E-02
       3.0758682E-02
       3.2398842E-02
       3.3741946E-02
       3.3432384E-02
       3.5811351E-02
       3.4769800E-02
       3.6619317E-02
       3.6421326E-02
       3.7089788E-02
       3.6408980E-02
       3.7002226E-02
       3.8103367E-02
       3.7574369E-02
       3.7509754E-02
       3.7847829E-02
       3.5094584E-02
       3.5576795E-02
       3.4050964E-02
       3.5203778E-02
       3.7160706E-02
       3.7341508E-02
       3.6622765E-02
       3.6372820E-02
       3.6699765E-02
       3.8271226E-02
       3.9359303E-02
       4.4026160E-03
       4.8659428E-04
       1.2960597E-03
       2.5041206E-04
       2.2984511E-02
       2.3716316E-02
       2.1499482E-02
       2.2436823E-02
       2.3169471E-02
       2.7178189E-02
       2.8561509E-02
       2.8265585E-02
       2.3650369E-02
       2.2668410E-02
       2.1464388E-02
       2.6573719E-02
       2.5981138E-02
       2.2689837E-02
       2.8345357E-02
       3.0004491E-02
       2.5828443E-03
       1.2508556E-03
       3.9599209E-03
       1.6759324E-03
       2.3516291E-03
       6.3534385E-03
       4.9088078E-04
       2.2042865E-03
       2.1083187E-04
       4.4049059E-04
       4.1655540E-04
       6.6702475E-04
       3.8105657E-04
       1.0293875E-03
       1.8994006E-04
       9.4980019E-03
       1.1268964E-02
       3.5076769E-03
       5.3461051E-03
       2.0262737E-02
       2.0605329E-02
       2.2108524E-02
       2.1978269E-02
       2.2946427E-02
       2.3656780E-02
       2.4141183E-02
       1.3095331E-02
       1.2355522E-02
       1.6384026E-02
       1.6934221E-02
       6.9049225E-03
       1.4423363E-02
       1.5472510E-02
       4.2683172E-03
       1.4667435E-02
       1.6955386E-02
       1.8410801E-02
       1.8113577E-02
       1.9610674E-02
       1.7966505E-02
       1.0055382E-03
       1.9683566E-02
       1.6226560E-02
       1.9421015E-02
       1.5371778E-02
       1.5401850E-02
       1.5038841E-02
       8.6165331E-03
       1.2441610E-02
       1.0460019E-02
       1.1370935E-02
       1.0246569E-02
       4.9442958E-03
       1.8920458E-03
       1.8493538E-02
       1.7813970E-02
       1.9971976E-02
       1.3109351E-02
       1.3332802E-02
       1.1841937E-02
       1.5331717E-02
       1.4040988E-02
       1.2867831E-02
       1.7113719E-02
       7.0746717E-03
       1.9845172E-03
       1.3960212E-03
       2.1545272E-02
       1.6842972E-02
       1.1262691E-02
       1.3360875E-02
       1.0522615E-02
       1.5749528E-02
       1.8136599E-02
       1.6816151E-02
       3.1604117E-02
       3.3208601E-02
       3.3258658E-02
       3.3497126E-02
       3.3408978E-02
       3.3796537E-02
       3.2960039E-02
       3.2874723E-02
       3.3402946E-02
       3.2892234E-02
       3.5853019E-02
       3.6386025E-02
       4.2662870E-02
       3.8195185E-02
       3.4808171E-02
       3.9365001E-02
       3.8373679E-02
       3.9253320E-02
       3.8528143E-02
       3.6998937E-02
       4.0764734E-02
       3.2295814E-02
       4.0031235E-02
       4.1733321E-02
       3.5189813E-02
       3.1268950E-02
       4.1461540E-02
       4.0822840E-02
       3.8561867E-02
       3.8734920E-02
       3.9128981E-02
       3.3179068E-02
       3.9949372E-02
       3.5067592E-02
       3.9463402E-02
       3.3966780E-02
       4.1155697E-02
       3.9129176E-02
       4.0235432E-02
       3.9725570E-02
       4.0279856E-02
       3.8824386E-02
       4.0922382E-02
       3.7055450E-02
       4.0540008E-02
       3.6719933E-02
       3.5641161E-02
       4.0126293E-02
       4.1125447E-02
       3.7032645E-02
       3.5834899E-02
       1.9943801E-02
       4.2003818E-02
       1.4740771E-02
       4.2584799E-02
       3.7657808E-02
       4.1941099E-02
       3.3731106E-02
       3.2683373E-02
       4.2137097E-02
       4.2670464E-02
       4.2717219E-02
       4.3804980E-02
       4.1784678E-02
       4.1469049E-02
       3.6930736E-02
       3.4547430E-02
       3.6232548E-02
       3.4241507E-02
       3.3716466E-02
       3.9568875E-02
       3.5504755E-02
       3.6111255E-02
       3.3242500E-02
       3.3675670E-02
       3.5528549E-02
       4.5117644E-02
       3.7725823E-02
       4.0696822E-02
       3.4547923E-02
       4.0499323E-02
       3.4995491E-02
       3.4430849E-02
       3.3478200E-02
       3.2672500E-02
       3.3942347E-02
       3.4358872E-02
       3.4510953E-02
       3.4169252E-02
       3.3717117E-02
       3.4101405E-02
       3.3256499E-02
       3.4049631E-02
       3.2579718E-02
       3.2343602E-02
       3.2924381E-02
       3.2262001E-02
       3.2963621E-02
       3.3528256E-02
       3.3139387E-02
       3.2475304E-02
       3.1796829E-02
       3.1571722E-02
       3.1403488E-02
       3.0387949E-02
       3.2159674E-02
       3.2361598E-02
       3.5389117E-02
       3.7086682E-02
       3.6167652E-02
       3.6624645E-02
       3.8071817E-02
       3.8931332E-02
       3.8586945E-02
       3.8920544E-02
       3.8615187E-02
       3.8115871E-02
       3.9078636E-02
       3.8476795E-02
       3.9853805E-02
       3.8582985E-02
       3.9672018E-02
       3.9271214E-02
       4.0273372E-02
       3.8950768E-02
       3.9196936E-02
       3.9052905E-02
       3.8182147E-02
       3.9614933E-02
       3.8666104E-02
       3.8653545E-02
       3.9267732E-02
       3.9381433E-02