# vtk DataFile Version 3.0
# Solution du M1 TR
ASCII
DATASET UNSTRUCTURED_GRID
POINTS   3280  float
0.0000000E+00  0.0000000E+00  0.2351741E-01
0.2000000E+01  0.0000000E+00  0.1960270E+01
0.2000000E+01  0.1000000E+01  0.1960424E+01
0.0000000E+00  0.1000000E+01  0.2372380E-01
0.1000000E+01  0.0000000E+00  0.9925319E+00
0.1000000E+01  0.1000000E+01  0.9920128E+00
0.1500000E+01  0.5000000E+00  0.1495776E+01
0.1500000E+01  0.0000000E+00  0.1473114E+01
0.1723284E+01  0.3570951E+00  0.1700588E+01
0.1500000E+01  0.2500000E+00  0.1494975E+01
0.1515103E+01  0.2763186E+00  0.1509455E+01
0.1594866E+01  0.2826386E+00  0.1583839E+01
0.1562500E+01  0.1875000E+00  0.1552667E+01
0.1534357E+01  0.1819434E+00  0.1525604E+01
0.1561083E+01  0.3343258E+00  0.1552655E+01
0.1750000E+01  0.0000000E+00  0.1715429E+01
0.1503267E+01  0.1622339E+00  0.1495190E+01
0.1514910E+01  0.2261192E+00  0.1508696E+01
0.1610795E+01  0.1290247E+00  0.1592099E+01
0.1539062E+01  0.1536458E+00  0.1527927E+01
0.1510772E+01  0.1982718E+00  0.1503908E+01
0.1541862E+01  0.2179813E+00  0.1533955E+01
0.1475030E+01  0.2178147E+00  0.1470859E+01
0.1539206E+01  0.2578835E+00  0.1531828E+01
0.1521085E+01  0.2465697E+00  0.1514671E+01
0.1496499E+01  0.2146241E+00  0.1491010E+01
0.1481433E+01  0.1870688E+00  0.1475547E+01
0.1586261E+01  0.1960616E+00  0.1574521E+01
0.1460896E+01  0.2899333E+00  0.1458353E+01
0.1542195E+01  0.2867649E+00  0.1534783E+01
0.1486080E+01  0.2754813E+00  0.1482036E+01
0.1536278E+01  0.3247610E+00  0.1529544E+01
0.1510131E+01  0.3295675E+00  0.1505036E+01
0.1455545E+01  0.2514402E+00  0.1452958E+01
0.1610995E+01  0.1909452E+00  0.1597487E+01
0.1564462E+01  0.2395252E+00  0.1555440E+01
0.1571524E+01  0.3026484E+00  0.1562137E+01
0.1613657E+01  0.2555806E+00  0.1601156E+01
0.1633998E+01  0.2714643E+00  0.1619650E+01
0.1534973E+01  0.3650914E+00  0.1527724E+01
0.1583157E+01  0.2286349E+00  0.1572469E+01
0.1586501E+01  0.1581416E+00  0.1573054E+01
0.1651985E+01  0.2274641E+00  0.1636062E+01
0.1619170E+01  0.2936434E+00  0.1606044E+01
0.1678889E+01  0.2641389E+00  0.1660340E+01
0.1642286E+01  0.2930521E+00  0.1627000E+01
0.1526415E+01  0.3446283E+00  0.1520043E+01
0.1662420E+01  0.3044259E+00  0.1645306E+01
0.1636786E+01  0.2469276E+00  0.1622431E+01
0.1588953E+01  0.3366240E+00  0.1578441E+01
0.1616427E+01  0.3314099E+00  0.1603684E+01
0.1598305E+01  0.3102698E+00  0.1586921E+01
0.1655410E+01  0.2614708E+00  0.1639007E+01
0.1487553E+01  0.3072167E+00  0.1483586E+01
0.1520126E+01  0.3036443E+00  0.1514260E+01
0.1477894E+01  0.2544664E+00  0.1474280E+01
0.1567847E+01  0.2133479E+00  0.1557977E+01
0.1663947E+01  0.3299725E+00  0.1647234E+01
0.1567022E+01  0.2696000E+00  0.1558005E+01
0.1678598E+01  0.3509559E+00  0.1660187E+01
0.1611933E+01  0.3827205E+00  0.1598672E+01
0.1640491E+01  0.3197373E+00  0.1625680E+01
0.1588015E+01  0.2526666E+00  0.1577386E+01
0.1708471E+01  0.3144917E+00  0.1687227E+01
0.1606944E+01  0.3564315E+00  0.1594609E+01
0.1604614E+01  0.2314093E+00  0.1592382E+01
0.1643491E+01  0.3631133E+00  0.1628123E+01
0.2000000E+01  0.5000000E+00  0.1960531E+01
0.1494727E+01  0.3621796E+00  0.1490217E+01
0.1701807E+01  0.3477237E+00  0.1681024E+01
0.1572156E+01  0.3701847E+00  0.1562501E+01
0.1688392E+01  0.3285111E+00  0.1669291E+01
0.1695932E+01  0.3904821E+00  0.1675533E+01
0.1636337E+01  0.3418163E+00  0.1621962E+01
0.1505941E+01  0.9448485E-01  0.1485347E+01
0.1423727E+01  0.1910920E+00  0.1420647E+01
0.1481447E+01  0.3359634E+00  0.1477975E+01
0.1441613E+01  0.3726133E+00  0.1440304E+01
0.1466699E+01  0.3599060E+00  0.1463969E+01
0.1476682E+01  0.4107296E+00  0.1473447E+01
0.1434448E+01  0.3273535E+00  0.1433567E+01
0.1464523E+01  0.3867258E+00  0.1462080E+01
0.1456903E+01  0.3373583E+00  0.1454873E+01
0.1454188E+01  0.3132491E+00  0.1452058E+01
0.1424069E+01  0.2919612E+00  0.1423221E+01
0.1490969E+01  0.3884111E+00  0.1486864E+01
0.1428051E+01  0.4202828E+00  0.1427765E+01
0.1513790E+01  0.3782958E+00  0.1508056E+01
0.1547789E+01  0.4092466E+00  0.1539786E+01
0.1535154E+01  0.3889763E+00  0.1527945E+01
0.1512699E+01  0.4170463E+00  0.1507338E+01
0.1441554E+01  0.3983607E+00  0.1440461E+01
0.1395941E+01  0.3853832E+00  0.1397341E+01
0.1420578E+01  0.3854393E+00  0.1420567E+01
0.1408336E+01  0.3518173E+00  0.1408850E+01
0.1549967E+01  0.3074339E+00  0.1542274E+01
0.1651639E+01  0.4114272E+00  0.1635162E+01
0.1668616E+01  0.3788978E+00  0.1650956E+01
0.1674624E+01  0.4027285E+00  0.1656406E+01
0.1706988E+01  0.4343785E+00  0.1685315E+01
0.1673984E+01  0.4357547E+00  0.1655238E+01
0.1695270E+01  0.4139894E+00  0.1675038E+01
0.1737273E+01  0.4034108E+00  0.1712692E+01
0.1645630E+01  0.3875965E+00  0.1629980E+01
0.1625874E+01  0.4052508E+00  0.1611618E+01
0.1627808E+01  0.4540126E+00  0.1613781E+01
0.1587158E+01  0.4136289E+00  0.1576199E+01
0.1633718E+01  0.4293591E+00  0.1619150E+01
0.1651607E+01  0.4466828E+00  0.1635170E+01
0.1605650E+01  0.4356658E+00  0.1593264E+01
0.1682168E+01  0.4808869E+00  0.1661825E+01
0.1671711E+01  0.4594749E+00  0.1653179E+01
0.1698428E+01  0.4596870E+00  0.1677489E+01
0.1646221E+01  0.4851828E+00  0.1629657E+01
0.1607747E+01  0.4151289E+00  0.1595087E+01
0.1584205E+01  0.4841185E+00  0.1572984E+01
0.1747573E+01  0.4622079E+00  0.1721823E+01
0.1568396E+01  0.4481495E+00  0.1558669E+01
0.1601760E+01  0.4629165E+00  0.1589769E+01
0.1723356E+01  0.4540167E+00  0.1700002E+01
0.1732897E+01  0.4294241E+00  0.1708413E+01
0.1722218E+01  0.4972746E+00  0.1698183E+01
0.1715121E+01  0.4754441E+00  0.1692050E+01
0.1584567E+01  0.4345797E+00  0.1573872E+01
0.1563465E+01  0.4258523E+00  0.1554524E+01
0.1534166E+01  0.4440258E+00  0.1527080E+01
0.1615090E+01  0.4918227E+00  0.1601397E+01
0.1717469E+01  0.4134541E+00  0.1694943E+01
0.1718488E+01  0.3909170E+00  0.1695669E+01
0.1741353E+01  0.3769080E+00  0.1716565E+01
0.1781199E+01  0.4241746E+00  0.1752561E+01
0.2000000E+01  0.2500000E+00  0.1960360E+01
0.1756308E+01  0.4199875E+00  0.1729993E+01
0.1762447E+01  0.3937207E+00  0.1735686E+01
0.1765097E+01  0.4438197E+00  0.1737724E+01
0.1807974E+01  0.4625425E+00  0.1776199E+01
0.1789176E+01  0.4471344E+00  0.1759347E+01
0.1514158E+01  0.1287364E+00  0.1501353E+01
0.1777674E+01  0.4803377E+00  0.1749151E+01
0.1811145E+01  0.4395021E+00  0.1779830E+01
0.1850404E+01  0.4566449E+00  0.1815976E+01
0.1748483E+01  0.3522599E+00  0.1723232E+01
0.1731235E+01  0.3304535E+00  0.1707817E+01
0.1777870E+01  0.3654441E+00  0.1750156E+01
0.1748149E+01  0.2821176E+00  0.1722989E+01
0.1732875E+01  0.3039003E+00  0.1709263E+01
0.1708314E+01  0.2807181E+00  0.1687304E+01
0.1767650E+01  0.3193756E+00  0.1740952E+01
0.1372661E+01  0.1704076E+00  0.1370256E+01
0.1411157E+01  0.2494459E+00  0.1410718E+01
0.1448000E+01  0.2246098E+00  0.1445273E+01
0.1360382E+01  0.2278583E+00  0.1361599E+01
0.1433680E+01  0.2431125E+00  0.1432130E+01
0.1388814E+01  0.2314916E+00  0.1388900E+01
0.1314549E+01  0.2124991E+00  0.1317322E+01
0.1404157E+01  0.2007613E+00  0.1402749E+01
0.1415035E+01  0.1072182E+00  0.1404002E+01
0.1520299E+01  0.1091515E+00  0.1503453E+01
0.1459010E+01  0.1690672E+00  0.1453232E+01
0.1436337E+01  0.2690050E+00  0.1434836E+01
0.1443480E+01  0.1263360E+00  0.1434478E+01
0.1625000E+01  0.0000000E+00  0.1593629E+01
0.1414954E+01  0.2197329E+00  0.1413538E+01
0.1335299E+01  0.2266424E+00  0.1337487E+01
0.1396801E+01  0.1612344E+00  0.1392582E+01
0.1792033E+01  0.3934232E+00  0.1762875E+01
0.1541310E+01  0.1264947E+00  0.1526989E+01
0.1483859E+01  0.1256971E+00  0.1471659E+01
0.1500341E+01  0.1139400E+00  0.1485565E+01
0.1498380E+01  0.1421255E+00  0.1487635E+01
0.1478242E+01  0.1468909E+00  0.1469596E+01
0.1453147E+01  0.1972183E+00  0.1449212E+01
0.1348833E+01  0.2067866E+00  0.1349955E+01
0.1368157E+01  0.2800764E+00  0.1369983E+01
0.1250000E+01  0.0000000E+00  0.1233416E+01
0.1496272E+01  0.2780308E-01  0.1470295E+01
0.1430228E+01  0.1622338E+00  0.1424611E+01
0.1544491E+01  0.1012427E+00  0.1524634E+01
0.1505524E+01  0.5428530E-01  0.1481176E+01
0.1576405E+01  0.1180891E+00  0.1558403E+01
0.1526885E+01  0.8834234E-01  0.1504244E+01
0.1558557E+01  0.6358195E-01  0.1532828E+01
0.1372206E+01  0.9428859E-01  0.1359404E+01
0.1414069E+01  0.8636887E-01  0.1398807E+01
0.1351230E+01  0.1581055E+00  0.1348875E+01
0.1371634E+01  0.2528708E+00  0.1373008E+01
0.1392978E+01  0.2694234E+00  0.1393567E+01
0.1321668E+01  0.2603105E+00  0.1325330E+01
0.1392566E+01  0.3027057E+00  0.1393513E+01
0.1345601E+01  0.2495441E+00  0.1347999E+01
0.1349996E+01  0.1827855E+00  0.1349685E+01
0.1475238E+01  0.9618066E-01  0.1457549E+01
0.1487372E+01  0.4556180E+00  0.1483746E+01
0.1432024E+01  0.3509343E+00  0.1431161E+01
0.1619231E+01  0.5383449E+00  0.1604227E+01
0.1532505E+01  0.4233173E+00  0.1525686E+01
0.1547332E+01  0.4788657E+00  0.1539264E+01
0.1627786E+01  0.4750493E+00  0.1613102E+01
0.1750658E+01  0.4911384E+00  0.1724436E+01
0.1783313E+01  0.5336292E+00  0.1753454E+01
0.1744147E+01  0.5299352E+00  0.1717567E+01
0.1772978E+01  0.5077787E+00  0.1744229E+01
0.1739682E+01  0.5092411E+00  0.1713757E+01
0.1715917E+01  0.5251974E+00  0.1691984E+01
0.1809547E+01  0.4999146E+00  0.1777440E+01
0.1486188E+01  0.5335558E+00  0.1482380E+01
0.1695320E+01  0.5058771E+00  0.1673753E+01
0.1793562E+01  0.5145404E+00  0.1762740E+01
0.1827482E+01  0.5355643E+00  0.1794209E+01
0.1805457E+01  0.5332234E+00  0.1773741E+01
0.1812320E+01  0.5734372E+00  0.1780365E+01
0.1794794E+01  0.5557356E+00  0.1764147E+01
0.1637325E+01  0.5533192E+00  0.1620590E+01
0.1761146E+01  0.5591762E+00  0.1733182E+01
0.1789115E+01  0.5788851E+00  0.1758752E+01
0.1693317E+01  0.6123782E+00  0.1672432E+01
0.1522396E+01  0.5359490E+00  0.1515947E+01
0.1814654E+01  0.6254783E+00  0.1782569E+01
0.1726166E+01  0.5505978E+00  0.1700965E+01
0.1691322E+01  0.5307786E+00  0.1669984E+01
0.1516987E+01  0.5143680E+00  0.1511241E+01
0.1661909E+01  0.5147686E+00  0.1642975E+01
0.1761865E+01  0.6508066E+00  0.1734339E+01
0.1692174E+01  0.5698207E+00  0.1670819E+01
0.1780214E+01  0.6037461E+00  0.1750897E+01
[...]
POINT_DATA    3280
SCALARS hauteur float
LOOKUP_TABLE DEFAULT
       2.3517412E-02
       1.3721149E-04
       2.9088146E-04
       2.3723799E-02
       1.2465347E-02
       1.1946260E-02
       2.5675728E-02
       3.0142235E-03
       1.1655422E-02
       2.4875378E-02
       2.4553115E-02
       2.0763995E-02
       2.1312540E-02
       2.1831527E-02
       2.2689984E-02
       3.1297262E-04
       2.1888084E-02
       2.3983037E-02
       1.3412112E-02
       1.9543152E-02
       2.3250632E-02
       2.2827408E-02
       2.5231770E-02
       2.3304090E-02
       2.3906595E-02
       2.4340702E-02
       2.3643978E-02
       1.9879015E-02
       2.6577679E-02
       2.3329271E-02
       2.5578949E-02
       2.3889152E-02
       2.5007484E-02
       2.6426786E-02
       1.8604942E-02
       2.2162242E-02
       2.1939448E-02
       1.9664558E-02
       1.8223247E-02
       2.3347807E-02
       2.0869048E-02
       1.8177272E-02
       1.7006556E-02
       1.9150322E-02
       1.4916536E-02
       1.7449839E-02
       2.4055261E-02
       1.6023470E-02
       1.8271260E-02
       2.1161864E-02
       1.9478687E-02
       2.0476308E-02
       1.6594974E-02
       2.5685020E-02
       2.4434691E-02
       2.5845889E-02
       2.1382578E-02
       1.6455045E-02
       2.2218304E-02
       1.5048526E-02
       1.8870019E-02
       1.7889540E-02
       2.1026103E-02
       1.2811546E-02
       1.9696697E-02
       1.9753064E-02
       1.7392931E-02
       3.9773249E-04
       2.5284726E-02
       1.3139846E-02
       2.1683932E-02
       1.4554127E-02
       1.3405786E-02
       1.8242011E-02
       9.4249179E-03
       2.5299624E-02
       2.6057786E-02
       2.7427615E-02
       2.6506610E-02
       2.6199514E-02
       2.7712371E-02
       2.6750072E-02
       2.7010537E-02
       2.6856734E-02
       2.7538230E-02
       2.5615545E-02
       2.8180413E-02
       2.4441334E-02
       2.2849802E-02
       2.3391128E-02
       2.4792195E-02
       2.7641288E-02
       2.9226210E-02
       2.8305746E-02
       2.8587397E-02
       2.3203159E-02
       1.6445672E-02
       1.5601666E-02
       1.5162833E-02
       1.2353435E-02
       1.4622441E-02
       1.3560876E-02
       1.0048967E-02
       1.7152572E-02
       1.8152928E-02
       1.8421611E-02
       2.0678089E-02
       1.7997714E-02
       1.6485019E-02
       1.9619803E-02
       1.3187750E-02
       1.4790797E-02
       1.2916495E-02
       1.6250357E-02
       1.9387603E-02
       2.0357597E-02
       9.0854148E-03
       2.1536364E-02
       1.9937219E-02
       1.0998483E-02
       1.0057879E-02
       1.0295026E-02
       1.1117468E-02
       2.0890800E-02
       2.2224633E-02
       2.3495511E-02
       1.8501543E-02
       1.1709714E-02
       1.1435859E-02
       9.9232340E-03
       6.8669468E-03
       2.2678417E-04
       8.6944066E-03
       8.3705987E-03
       7.8113104E-03
       4.2642135E-03
       5.8352918E-03
       1.7376608E-02
       6.9122792E-03
       4.7873839E-03
       2.4571456E-03
       9.6025376E-03
       1.1091718E-02
       7.7253195E-03
       9.6869688E-03
       1.0929842E-02
       1.3042893E-02
       8.5372188E-03
       2.4957088E-02
       2.7690481E-02
       2.6136400E-02
       2.8334083E-02
       2.7027932E-02
       2.7769540E-02
       2.8977210E-02
       2.6581582E-02
       1.7173065E-02
       1.3457968E-02
       2.3305329E-02
       2.7130509E-02
       1.9771500E-02
       1.0203468E-03
       2.6789382E-02
       2.8804872E-02
       2.3624047E-02
       6.5641227E-03
       1.6402336E-02
       1.7377709E-02
       1.5131324E-02
       1.9122986E-02
       2.0820799E-02
       2.5031109E-02
       2.8008776E-02
       2.9098325E-02
       8.3330637E-03
       3.8488856E-03
       2.2892021E-02
       1.0929833E-02
       5.6623685E-03
       1.3421687E-02
       7.7951521E-03
       5.3383480E-03
       1.4550590E-02
       1.2925963E-02
       2.4579343E-02
       2.8716031E-02
       2.8356315E-02
       3.0007861E-02
       2.8705914E-02
       2.9220409E-02
       2.6598369E-02
       1.1717429E-02
       2.6022701E-02
       2.7682226E-02
       1.7272417E-02
       2.3729354E-02
       2.2775298E-02
       1.7762783E-02
       8.6742810E-03
       5.6890018E-03
       8.1871083E-03
       6.5927384E-03
       8.7530497E-03
       1.0271300E-02
       3.9639567E-03
       2.5817170E-02
       1.2226648E-02
       4.9303253E-03
       3.1549072E-03
       4.2727271E-03
       4.1705478E-03
       5.1298459E-03
       1.5902436E-02
       7.1415452E-03
       5.3003536E-03
       1.2869057E-02
       2.3897773E-02
       4.0881107E-03
       9.2070429E-03
       1.2375839E-02
       2.4492836E-02
       1.4193615E-02
       7.5938166E-03
       1.2375804E-02
       6.1688827E-03
       2.1461690E-02
       1.3761407E-02
       8.0227574E-03
       2.0104091E-02
       1.4932677E-02
       9.1991335E-03
       8.7081976E-03
       1.1682345E-02
       1.1964735E-02
       3.7233077E-03
       5.7002577E-03
       4.7699172E-04
       9.5101593E-03
       2.3626221E-03
       6.4143524E-03
       7.3599785E-03
       1.4394199E-02
       1.1458592E-02
       5.3745698E-03
       3.5013412E-03
       3.5764493E-03
       4.7801219E-03
       5.7985242E-03
       5.9432990E-03
       7.8427380E-03
       1.9717725E-02
       2.7100261E-02
       1.5225323E-02
       1.7402673E-02
       1.9856147E-02
       2.2000272E-02
       5.0944662E-03
       7.9587256E-03
       4.8387829E-03
       2.0619514E-03
       1.7811854E-03
       2.8149920E-03
       9.3466240E-03
       8.9714704E-03
       2.0355910E-03
       1.3306419E-02
       3.9907813E-03
       1.2131023E-02
       2.8872444E-03
       6.5811150E-04
       8.0947616E-03
       1.6528641E-02
       1.5301349E-02
       1.7554660E-02
       7.7504479E-03
       1.7148010E-02
       2.2269615E-02
       2.1105609E-02
       2.6191625E-02
       2.4665927E-02
       2.1738326E-02
       2.5450789E-02
       1.1914215E-02
       5.6794020E-03
       2.1541744E-02
       8.4425977E-03
       2.0571730E-02
       5.7585578E-03
       2.8099085E-02
       2.8255737E-02
       2.9090323E-02
       2.9539661E-02
       2.9992782E-02
       2.5730302E-02
       2.4682665E-02
       2.7029270E-02
       2.3959274E-02
       2.4146072E-02
       1.9320167E-02
       2.2783815E-02
       1.5485483E-02
       2.2666208E-02
       2.1502608E-02
       5.0209316E-03
       3.3967595E-03
       2.7753517E-03
       6.8937792E-03
       1.4505826E-02
       3.1333181E-03
       4.5573964E-03
       1.6368785E-02
       1.9516750E-02
       4.8027485E-03
       1.2168978E-02
       5.0270511E-03
       1.0486774E-02
       8.2236780E-03
       1.0058582E-02
       9.7999907E-03
       4.8001675E-03
       2.6469090E-03
       9.9595582E-05
       6.5093996E-03
       1.5050389E-03
       9.2857935E-03
       5.7666239E-03
       1.5653579E-02
       4.1146788E-04
       3.2594448E-03
       8.2367322E-03
       7.4151990E-03
       1.3653210E-02
       1.0596044E-02
       2.9262999E-03
       1.8206758E-02
       1.3742491E-03
       1.1647481E-02
       2.1634465E-02
       1.2297997E-03
       6.6208101E-04
       1.3511416E-02
       1.3691763E-02
       1.4246493E-02
       1.4081713E-02
       7.2486539E-03
       1.6164651E-02
       1.5267793E-02
       1.5433260E-02
       1.7512556E-02
       1.4622150E-02
       9.5678701E-03
       1.3196610E-02
       1.2983284E-02
       4.4572127E-04
       3.3026283E-03
       3.4261977E-03
       5.0157200E-03
       2.8483144E-03
       2.9210492E-03
       1.2912224E-03
       1.2557015E-03
       8.3066682E-04
       1.4790105E-02
       1.7061797E-02
       1.5763386E-02
       1.2638752E-02
       1.7048697E-02
       1.0590690E-02
       4.3432619E-03
       8.7286050E-03
       4.9881015E-03
       3.6764131E-03
       2.4656317E-03
       3.7740068E-03
       4.6479094E-03
       2.7674846E-02
       3.0936070E-02
       2.9307918E-02
       2.9982803E-02
       3.0908039E-02
       2.9632085E-02
       3.0514320E-02
       3.1557119E-02
       3.1205233E-02
       3.2314027E-02
       3.0775005E-02
       3.1829205E-02
       3.2924708E-02
       3.2305426E-02
       3.2054654E-02
       3.2131211E-02
       3.1249167E-02
       2.9944977E-02
       2.9446828E-02
       2.9387940E-02
       2.9303207E-02
       3.0272487E-02
       3.0895575E-02
       3.0999832E-02
       2.7696670E-02
       2.4821494E-02
       2.7903525E-02
       2.6478100E-02
       2.5042945E-02
       2.9811816E-02
       3.1028212E-02
       3.0690242E-02
       3.0259961E-02
       3.0175427E-02
       3.0839478E-02
       3.2270507E-02
       3.1646325E-02
       2.9920022E-02
       3.1516959E-02
       3.2163989E-02
       3.2343521E-02
       3.1638739E-02
       3.0425274E-02
       3.0829228E-02
       3.3714141E-02
       3.1571756E-02
       3.3489407E-02
       3.2974207E-02
       3.2918965E-02
       3.2982064E-02
       3.4052601E-02
       3.3461758E-02
       3.3325001E-02
       3.2904825E-02
       3.3419334E-02
       3.4553036E-02
       3.3934770E-02
       3.4291265E-02
       3.3483889E-02
       3.5372172E-02
       3.2987613E-02
       3.4649978E-02
       3.1977767E-02
       3.4045381E-02
       3.4918306E-02
       3.5713167E-02
       3.5508638E-02
       3.6558005E-02
       3.6012429E-02
       3.5362370E-02
       3.4376126E-02
       3.2728064E-02
       3.3474166E-02
       3.6071532E-02
       3.6289902E-02
       3.6394136E-02
       3.7290024E-02
       3.6915014E-02
       3.5137689E-02
       3.6770486E-02
       3.2093753E-02
       3.3344692E-02
       3.6770580E-02
       3.6754081E-02
       3.6010428E-02
       3.6644951E-02
       3.7081151E-02
       3.1131788E-02
       3.3283234E-02
       3.7759768E-02
       3.2623266E-02
       3.4495966E-02
       3.7343616E-02
       3.7602764E-02
       3.1233823E-02
       3.4008194E-02
       3.4622952E-02
       3.7182691E-02
       3.7599452E-02
       3.7544323E-02
       3.8480188E-02
       3.8119310E-02
       3.1897836E-02
       3.1139215E-02
       3.2257517E-02
       2.9349813E-02
       3.2354074E-02
       3.0296012E-02
       3.0368536E-02
       3.0139141E-02
       3.8234475E-02
       3.9188189E-02
       2.9113325E-02
       3.7969167E-02
       3.8571899E-02
       3.7875233E-02
       3.8757863E-02
       2.8150320E-02
       2.9607470E-02
       2.8808598E-02
       2.7492925E-02
       2.8368423E-02
       2.8567760E-02
       3.8338713E-02
       3.7843556E-02
       3.8795346E-02
       3.7891865E-02
       2.7402174E-02
       2.6542119E-02
       3.7531553E-02
       3.9260700E-02
       3.8486305E-02
       3.6701843E-02
       2.6823578E-02
       3.8986901E-02
       3.7273825E-02
       3.6602647E-02
       2.7918641E-02
       3.8425742E-02
       3.9087907E-02
       3.7622642E-02
       4.0052275E-02
       3.7737781E-02
       3.9677076E-02
       3.9611846E-02
       3.9645905E-02
       3.9953188E-02
       3.9640520E-02
       3.9209482E-02
       3.9118508E-02
       4.0460385E-02
       4.0052471E-02
       4.0612547E-02
       4.0132007E-02
       4.0375810E-02
       2.7182201E-02
       3.7374006E-03
       2.4253202E-03
       1.0729004E-03
       1.7795377E-03
       1.1252500E-03
       1.6211545E-03
       1.4760669E-03
       2.0669801E-03
       2.3190358E-03
       2.0020636E-03
       2.6880283E-03
       2.2622194E-04
       3.5016720E-04
       1.2700299E-03
       1.4240234E-03
       9.1904977E-04
       5.7076468E-04
       1.4979209E-03
       3.9426743E-04
       4.3306679E-04
       9.8319894E-04
       6.5257861E-04
       3.8497032E-04
       5.9041926E-04
       2.2794344E-04
       2.5592813E-02
       1.4647543E-02
       1.3480937E-02
       1.6608302E-02
       1.5056407E-02
       1.5573128E-02
       1.7477263E-02
       2.3188408E-02
       2.0512387E-02
       2.2474346E-02
       2.3781992E-02
       2.1076988E-02
       2.2182474E-02
       1.9553033E-02
       2.2668496E-02
       2.4147257E-02
       2.3476647E-02
       2.5223121E-02
       2.6264722E-02
       2.5320986E-02
       2.3663198E-02
       2.1201204E-02
       2.2434017E-02
       2.1742060E-02
       2.2423475E-02
       2.3922487E-02
       2.2867149E-02
       2.1777411E-02
       2.2852700E-02
       2.2096613E-02
       2.2953709E-02
       1.9879613E-02
       2.2811995E-02
       2.0685838E-02
       2.4310178E-02
       2.1783812E-02
       2.3840289E-02
       2.5036271E-02
       2.1451623E-02
       2.1752042E-02
       2.3029144E-02
       2.5020753E-02
       2.6235210E-02
       2.5401095E-02
       2.4393126E-02
       2.7037518E-02
       2.5054329E-02
       2.5749269E-02
       2.5129043E-02
       2.4046867E-02
       2.6127913E-02
       2.5977491E-02
       2.7699629E-02
       2.6014195E-02
       2.6899267E-02
       2.8777219E-02
       2.7890683E-02
       2.9289610E-02
       6.6233056E-03
       8.5695148E-03
       1.0300692E-02
       1.1267041E-02
       1.1003207E-02
       1.0735945E-02
       3.5043267E-03
       9.1594111E-04
       3.9978660E-03
       1.7345753E-03
       1.2130833E-02
       1.7712915E-02
       1.1237959E-02
       9.7632108E-03
       1.5089875E-02
       1.5685524E-02
       1.3429826E-02
       1.0789300E-02
       1.1250010E-02
       1.2710416E-02
       1.3233808E-02
       1.5368972E-02
       9.1589274E-03
       7.2207176E-03
       9.3282017E-03
       9.1265496E-03
       6.9330165E-03
       7.8807156E-03
       9.2436137E-03
       4.3293418E-03
       4.1843662E-03
       6.0991314E-03
       4.2544456E-03
       5.4344200E-03
       5.5357696E-03
       1.0428436E-02
       4.2962927E-03
       6.0834277E-03
       3.4334173E-03
       1.6305145E-03
       1.6476658E-03
       9.9393820E-04
       1.8428619E-02
       1.9072241E-02
       1.8800745E-02
       5.1473600E-03
       6.0780758E-03
       6.9198201E-03
       4.3291482E-03
       4.4752281E-03
       2.8951153E-03
       2.7940419E-02
       2.7147081E-02
       2.8975860E-02
       2.7135857E-02
       2.9149362E-02
       2.5390746E-02
       3.0357726E-02
       2.4923819E-02
       3.1473352E-02
       3.0148287E-02
       2.7090938E-02
       2.8398641E-02
       1.7147083E-02
       3.1021616E-02
       2.1973739E-02
       2.2292517E-02
       1.0815267E-02
       2.0925918E-02
       3.2159629E-02
       1.4422208E-02
       1.0790540E-02
       1.4537488E-02
       1.4129897E-02
       3.0652368E-02
       3.2119265E-02
       2.4207855E-02
       2.2766064E-02
       3.1420255E-02
       3.3708531E-02
       3.3916624E-02
       3.1365132E-02
       3.3884991E-02
       3.5802197E-02
       3.5217416E-02
       3.8179157E-02
       3.7004166E-02
       3.8891864E-02
       3.8353348E-02
       3.8902166E-02
       3.8265878E-02
       3.8924833E-02
       3.9978306E-02
       3.9451517E-02
       3.9484249E-02
       3.9551815E-02
       3.6694617E-02
       3.7346975E-02
       3.5808766E-02
       3.7099851E-02
       3.9504394E-02
       3.9676651E-02
       3.8971560E-02
       3.8747478E-02
       3.9080199E-02
       4.0294181E-02
       4.1342728E-02
       2.1571702E-03
       4.4253203E-04
       7.9062301E-04
       3.2795754E-04
       1.7490284E-02
       1.8714763E-02
       1.6532370E-02
       1.8215460E-02
       1.8120038E-02
       2.5244074E-02
       2.7869158E-02
       2.7332138E-02
       1.9645831E-02
       1.8342258E-02
       1.8797427E-02
       2.4663329E-02
       2.3795839E-02
       2.1456360E-02
       2.7526030E-02
       3.0369322E-02
       1.4370726E-03
       7.4610677E-04
       2.2660027E-03
       1.0598786E-03
       1.3981083E-03
       3.8769271E-03
       3.4488158E-04
       1.2810499E-03
       1.3344217E-04
       2.6495805E-04
       3.9051259E-04
       5.8799766E-04
       2.2215435E-04
       6.0061758E-04
       1.6058074E-04
       5.9519997E-03
       7.6179600E-03
       1.8647881E-03
       2.6060832E-03
       1.5680479E-02
       1.6690039E-02
       1.8665097E-02
       1.8935551E-02
       1.9413482E-02
       2.0627338E-02
       2.1013712E-02
       9.4888450E-03
       8.9031199E-03
       1.2899733E-02
       1.3983461E-02
       4.3967020E-03
       1.0946180E-02
       1.2162904E-02
       2.5741875E-03
       1.1217243E-02
       1.3909260E-02
       1.5599784E-02
       1.5577801E-02
       1.6781843E-02
       1.5240433E-02
       6.8620715E-04
       1.7187371E-02
       1.3272277E-02
       1.6780092E-02
       1.2177711E-02
       1.2471646E-02
       1.1768287E-02
       5.2064199E-03
       8.6422725E-03
       6.5705362E-03
       7.8175500E-03
       6.2949674E-03
       2.7540517E-03
       1.1503153E-03
       1.6299790E-02
       1.5391780E-02
       1.7771174E-02
       7.1306426E-03
       7.3358694E-03
       6.1925886E-03
       9.3206854E-03
       8.0451299E-03
       7.1296244E-03
       1.1472600E-02
       3.4109032E-03
       9.9144412E-04
       7.0852208E-04
       2.2282988E-02
       1.7561284E-02
       1.1620978E-02
       1.3886890E-02
       1.1226608E-02
       1.6153824E-02
       1.8688888E-02
       1.7685906E-02
       3.2980235E-02
       3.5099130E-02
       3.5207675E-02
       3.5405606E-02
       3.5401809E-02
       3.5889826E-02
       3.4622497E-02
       3.4411648E-02
       3.5107143E-02
       3.4387067E-02
       3.8198364E-02
       3.8138385E-02
       4.3027458E-02
       3.7937183E-02
       3.6478648E-02
       4.0635447E-02
       3.9905156E-02
       4.0694216E-02
       3.9919648E-02
       3.8602459E-02
       4.1723010E-02
       3.3749991E-02
       4.1346563E-02
       4.2429680E-02
       3.6704170E-02
       3.2785963E-02
       4.2438607E-02
       4.2101056E-02
       4.0306079E-02
       4.0605116E-02
       4.0820200E-02
       3.3971910E-02
       4.1660212E-02
       3.6868366E-02
       4.1227944E-02
       3.5571332E-02
       4.2078599E-02
       4.1049244E-02
       4.1657570E-02
       4.1333527E-02
       4.1817025E-02
       4.0422494E-02
       4.2363103E-02
       3.8534969E-02
       4.2082682E-02
       3.8106893E-02
       3.7321763E-02
       4.1866016E-02
       4.2394212E-02
       3.8735389E-02
       3.7269317E-02
       1.8406041E-02
       4.2810467E-02
       1.6096555E-02
       4.3182898E-02
       3.8994606E-02
       4.2971902E-02
       3.5379530E-02
       3.4269289E-02
       4.3039110E-02
       4.3421028E-02
       4.3407121E-02
       4.3966402E-02
       4.2759689E-02
       4.2653487E-02
       3.8122295E-02
       3.6282204E-02
       3.7749873E-02
       3.5784480E-02
       3.5173692E-02
       4.1092812E-02
       3.6637570E-02
       3.7727761E-02
       3.4774975E-02
       3.5409481E-02
       3.6842775E-02
       4.4565631E-02
       3.9250133E-02
       4.1887827E-02
       3.6355775E-02
       4.1628540E-02
       3.6830193E-02
       3.6210343E-02
       3.5182318E-02
       3.4330629E-02
       3.5696633E-02
       3.6179348E-02
       3.6329898E-02
       3.5953504E-02
       3.5451175E-02
       3.5887494E-02
       3.4949141E-02
       3.5821946E-02
       3.4221233E-02
       3.3908224E-02
       3.4566757E-02
       3.3856322E-02
       3.4577183E-02
       3.5220916E-02
       3.4742866E-02
       3.3974133E-02
       3.3239104E-02
       3.3043814E-02
       3.2903969E-02
       3.1842091E-02
       3.3561414E-02
       3.3889261E-02
       3.7350275E-02
       3.9457092E-02
       3.8554060E-02
       3.8864591E-02
       4.0044796E-02
       4.0998175E-02
       4.0738937E-02
       4.0993587E-02
       4.0761888E-02
       4.0311529E-02
       4.1130922E-02
       4.0629692E-02
       4.1670415E-02
       4.0636174E-02
       4.1571277E-02
       4.1255470E-02
       4.1980219E-02
       4.0970966E-02
       4.1024488E-02
       4.0993181E-02
       4.0110425E-02
       4.1408085E-02
       4.0603971E-02
       4.0341080E-02
       4.1228976E-02
       4.1294512E-02