# vtk DataFile Version 3.0
# Solution du M1 TR
ASCII
DATASET UNSTRUCTURED_GRID
POINTS   3280  float
0.0000000E+00  0.0000000E+00  0.1566841E-01
0.2000000E+01  0.0000000E+00  0.1960148E+01
0.2000000E+01  0.1000000E+01  0.1960185E+01
0.0000000E+00  0.1000000E+01  0.1569500E-01
0.1000000E+01  0.0000000E+00  0.9941277E+00
0.1000000E+01  0.1000000E+01  0.9936899E+00
0.1500000E+01  0.5000000E+00  0.1496247E+01
0.1500000E+01  0.0000000E+00  0.1473949E+01
0.1723284E+01  0.3570951E+00  0.1706099E+01
0.1500000E+01  0.2500000E+00  0.1494680E+01
0.1515103E+01  0.2763186E+00  0.1509485E+01
0.1594866E+01  0.2826386E+00  0.1584967E+01
0.1562500E+01  0.1875000E+00  0.1552739E+01
0.1534357E+01  0.1819434E+00  0.1525496E+01
0.1561083E+01  0.3343258E+00  0.1553452E+01
0.1750000E+01  0.0000000E+00  0.1715619E+01
0.1503267E+01  0.1622339E+00  0.1495037E+01
0.1514910E+01  0.2261192E+00  0.1508388E+01
0.1610795E+01  0.1290247E+00  0.1594367E+01
0.1539062E+01  0.1536458E+00  0.1528244E+01
0.1510772E+01  0.1982718E+00  0.1503598E+01
0.1541862E+01  0.2179813E+00  0.1533829E+01
0.1475030E+01  0.2178147E+00  0.1470458E+01
0.1539206E+01  0.2578835E+00  0.1531939E+01
0.1521085E+01  0.2465697E+00  0.1514516E+01
0.1496499E+01  0.2146241E+00  0.1490589E+01
0.1481433E+01  0.1870688E+00  0.1475182E+01
0.1586261E+01  0.1960616E+00  0.1575186E+01
0.1460896E+01  0.2899333E+00  0.1458364E+01
0.1542195E+01  0.2867649E+00  0.1535133E+01
0.1486080E+01  0.2754813E+00  0.1481950E+01
0.1536278E+01  0.3247610E+00  0.1530038E+01
0.1510131E+01  0.3295675E+00  0.1505424E+01
0.1455545E+01  0.2514402E+00  0.1452744E+01
0.1610995E+01  0.1909452E+00  0.1598819E+01
0.1564462E+01  0.2395252E+00  0.1555685E+01
0.1571524E+01  0.3026484E+00  0.1562989E+01
0.1613657E+01  0.2555806E+00  0.1602607E+01
0.1633998E+01  0.2714643E+00  0.1621804E+01
0.1534973E+01  0.3650914E+00  0.1528620E+01
0.1583157E+01  0.2286349E+00  0.1573041E+01
0.1586501E+01  0.1581416E+00  0.1573925E+01
0.1651985E+01  0.2274641E+00  0.1638570E+01
0.1619170E+01  0.2936434E+00  0.1607885E+01
0.1678889E+01  0.2641389E+00  0.1664194E+01
0.1642286E+01  0.2930521E+00  0.1629631E+01
0.1526415E+01  0.3446283E+00  0.1520674E+01
0.1662420E+01  0.3044259E+00  0.1648712E+01
0.1636786E+01  0.2469276E+00  0.1624430E+01
0.1588953E+01  0.3366240E+00  0.1579736E+01
0.1616427E+01  0.3314099E+00  0.1605567E+01
0.1598305E+01  0.3102698E+00  0.1588310E+01
0.1655410E+01  0.2614708E+00  0.1641969E+01
0.1487553E+01  0.3072167E+00  0.1483766E+01
0.1520126E+01  0.3036443E+00  0.1514551E+01
0.1477894E+01  0.2544664E+00  0.1474037E+01
0.1567847E+01  0.2133479E+00  0.1558174E+01
0.1663947E+01  0.3299725E+00  0.1650438E+01
0.1567022E+01  0.2696000E+00  0.1558558E+01
0.1678598E+01  0.3509559E+00  0.1664075E+01
0.1611933E+01  0.3827205E+00  0.1601152E+01
0.1640491E+01  0.3197373E+00  0.1628205E+01
0.1588015E+01  0.2526666E+00  0.1578203E+01
0.1708471E+01  0.3144917E+00  0.1692121E+01
0.1606944E+01  0.3564315E+00  0.1596589E+01
0.1604614E+01  0.2314093E+00  0.1593535E+01
0.1643491E+01  0.3631133E+00  0.1631056E+01
0.2000000E+01  0.5000000E+00  0.1960421E+01
0.1494727E+01  0.3621796E+00  0.1490696E+01
0.1701807E+01  0.3477237E+00  0.1685819E+01
0.1572156E+01  0.3701847E+00  0.1563848E+01
0.1688392E+01  0.3285111E+00  0.1673372E+01
0.1695932E+01  0.3904821E+00  0.1680279E+01
0.1636337E+01  0.3418163E+00  0.1624444E+01
0.1505941E+01  0.9448485E-01  0.1486921E+01
0.1423727E+01  0.1910920E+00  0.1420476E+01
0.1481447E+01  0.3359634E+00  0.1478314E+01
0.1441613E+01  0.3726133E+00  0.1440803E+01
0.1466699E+01  0.3599060E+00  0.1464414E+01
0.1476682E+01  0.4107296E+00  0.1473911E+01
0.1434448E+01  0.3273535E+00  0.1433972E+01
0.1464523E+01  0.3867258E+00  0.1462541E+01
0.1456903E+01  0.3373583E+00  0.1455256E+01
0.1454188E+01  0.3132491E+00  0.1452297E+01
0.1424069E+01  0.2919612E+00  0.1423411E+01
0.1490969E+01  0.3884111E+00  0.1487362E+01
0.1428051E+01  0.4202828E+00  0.1428295E+01
0.1513790E+01  0.3782958E+00  0.1508701E+01
0.1547789E+01  0.4092466E+00  0.1540900E+01
0.1535154E+01  0.3889763E+00  0.1528872E+01
0.1512699E+01  0.4170463E+00  0.1507956E+01
0.1441554E+01  0.3983607E+00  0.1440961E+01
0.1395941E+01  0.3853832E+00  0.1398126E+01
0.1420578E+01  0.3854393E+00  0.1421144E+01
0.1408336E+01  0.3518173E+00  0.1409476E+01
0.1549967E+01  0.3074339E+00  0.1542815E+01
0.1651639E+01  0.4114272E+00  0.1638761E+01
0.1668616E+01  0.3788978E+00  0.1654666E+01
0.1674624E+01  0.4027285E+00  0.1660466E+01
0.1706988E+01  0.4343785E+00  0.1690936E+01
0.1673984E+01  0.4357547E+00  0.1659796E+01
0.1695270E+01  0.4139894E+00  0.1679896E+01
0.1737273E+01  0.4034108E+00  0.1719178E+01
0.1645630E+01  0.3875965E+00  0.1633175E+01
0.1625874E+01  0.4052508E+00  0.1614450E+01
0.1627808E+01  0.4540126E+00  0.1616582E+01
0.1587158E+01  0.4136289E+00  0.1577964E+01
0.1633718E+01  0.4293591E+00  0.1622085E+01
0.1651607E+01  0.4466828E+00  0.1638892E+01
0.1605650E+01  0.4356658E+00  0.1595539E+01
0.1682168E+01  0.4808869E+00  0.1667566E+01
0.1671711E+01  0.4594749E+00  0.1657906E+01
0.1698428E+01  0.4596870E+00  0.1683089E+01
0.1646221E+01  0.4851828E+00  0.1633784E+01
0.1607747E+01  0.4151289E+00  0.1597387E+01
0.1584205E+01  0.4841185E+00  0.1575298E+01
0.1747573E+01  0.4622079E+00  0.1729165E+01
0.1568396E+01  0.4481495E+00  0.1560334E+01
0.1601760E+01  0.4629165E+00  0.1592081E+01
0.1723356E+01  0.4540167E+00  0.1706408E+01
0.1732897E+01  0.4294241E+00  0.1715096E+01
0.1722218E+01  0.4972746E+00  0.1705485E+01
0.1715121E+01  0.4754441E+00  0.1698768E+01
0.1584567E+01  0.4345797E+00  0.1575682E+01
0.1563465E+01  0.4258523E+00  0.1555848E+01
0.1534166E+01  0.4440258E+00  0.1528087E+01
0.1615090E+01  0.4918227E+00  0.1604533E+01
0.1717469E+01  0.4134541E+00  0.1700664E+01
0.1718488E+01  0.3909170E+00  0.1701402E+01
0.1741353E+01  0.3769080E+00  0.1722918E+01
0.1781199E+01  0.4241746E+00  0.1760159E+01
0.2000000E+01  0.2500000E+00  0.1960296E+01
0.1756308E+01  0.4199875E+00  0.1737099E+01
0.1762447E+01  0.3937207E+00  0.1742705E+01
0.1765097E+01  0.4438197E+00  0.1745362E+01
0.1807974E+01  0.4625425E+00  0.1784428E+01
0.1789176E+01  0.4471344E+00  0.1767514E+01
0.1514158E+01  0.1287364E+00  0.1502088E+01
0.1777674E+01  0.4803377E+00  0.1757269E+01
0.1811145E+01  0.4395021E+00  0.1787792E+01
0.1850404E+01  0.4566449E+00  0.1822309E+01
0.1748483E+01  0.3522599E+00  0.1729526E+01
0.1731235E+01  0.3304535E+00  0.1713516E+01
0.1777870E+01  0.3654441E+00  0.1757131E+01
0.1748149E+01  0.2821176E+00  0.1729241E+01
0.1732875E+01  0.3039003E+00  0.1714995E+01
0.1708314E+01  0.2807181E+00  0.1692050E+01
0.1767650E+01  0.3193756E+00  0.1747531E+01
0.1372661E+01  0.1704076E+00  0.1370562E+01
0.1411157E+01  0.2494459E+00  0.1410793E+01
0.1448000E+01  0.2246098E+00  0.1444989E+01
0.1360382E+01  0.2278583E+00  0.1362137E+01
0.1433680E+01  0.2431125E+00  0.1432016E+01
0.1388814E+01  0.2314916E+00  0.1389111E+01
0.1314549E+01  0.2124991E+00  0.1318514E+01
0.1404157E+01  0.2007613E+00  0.1402749E+01
0.1415035E+01  0.1072182E+00  0.1404576E+01
0.1520299E+01  0.1091515E+00  0.1504862E+01
0.1459010E+01  0.1690672E+00  0.1453023E+01
0.1436337E+01  0.2690050E+00  0.1434811E+01
0.1443480E+01  0.1263360E+00  0.1434742E+01
0.1625000E+01  0.0000000E+00  0.1594280E+01
0.1414954E+01  0.2197329E+00  0.1413450E+01
0.1335299E+01  0.2266424E+00  0.1338351E+01
0.1396801E+01  0.1612344E+00  0.1392731E+01
0.1792033E+01  0.3934232E+00  0.1770239E+01
0.1541310E+01  0.1264947E+00  0.1527977E+01
0.1483859E+01  0.1256971E+00  0.1472185E+01
0.1500341E+01  0.1139400E+00  0.1486608E+01
0.1498380E+01  0.1421255E+00  0.1487954E+01
0.1478242E+01  0.1468909E+00  0.1469621E+01
0.1453147E+01  0.1972183E+00  0.1448845E+01
0.1348833E+01  0.2067866E+00  0.1350568E+01
0.1368157E+01  0.2800764E+00  0.1370624E+01
0.1250000E+01  0.0000000E+00  0.1234210E+01
0.1496272E+01  0.2780308E-01  0.1471399E+01
0.1430228E+01  0.1622338E+00  0.1424619E+01
0.1544491E+01  0.1012427E+00  0.1526434E+01
0.1505524E+01  0.5428530E-01  0.1482660E+01
0.1576405E+01  0.1180891E+00  0.1560034E+01
0.1526885E+01  0.8834234E-01  0.1506130E+01
0.1558557E+01  0.6358195E-01  0.1534843E+01
0.1372206E+01  0.9428859E-01  0.1360217E+01
0.1414069E+01  0.8636887E-01  0.1399581E+01
0.1351230E+01  0.1581055E+00  0.1349464E+01
0.1371634E+01  0.2528708E+00  0.1373544E+01
0.1392978E+01  0.2694234E+00  0.1393877E+01
0.1321668E+01  0.2603105E+00  0.1326643E+01
0.1392566E+01  0.3027057E+00  0.1394010E+01
0.1345601E+01  0.2495441E+00  0.1348872E+01
0.1349996E+01  0.1827855E+00  0.1350239E+01
0.1475238E+01  0.9618066E-01  0.1458689E+01
0.1487372E+01  0.4556180E+00  0.1484184E+01
0.1432024E+01  0.3509343E+00  0.1431665E+01
0.1619231E+01  0.5383449E+00  0.1608235E+01
0.1532505E+01  0.4233173E+00  0.1526560E+01
0.1547332E+01  0.4788657E+00  0.1540569E+01
0.1627786E+01  0.4750493E+00  0.1616332E+01
0.1750658E+01  0.4911384E+00  0.1732238E+01
0.1783313E+01  0.5336292E+00  0.1762467E+01
0.1744147E+01  0.5299352E+00  0.1726006E+01
0.1772978E+01  0.5077787E+00  0.1752886E+01
0.1739682E+01  0.5092411E+00  0.1721814E+01
0.1715917E+01  0.5251974E+00  0.1699468E+01
0.1809547E+01  0.4999146E+00  0.1785883E+01
0.1486188E+01  0.5335558E+00  0.1482744E+01
0.1695320E+01  0.5058771E+00  0.1680214E+01
0.1793562E+01  0.5145404E+00  0.1771609E+01
0.1827482E+01  0.5355643E+00  0.1801887E+01
0.1805457E+01  0.5332234E+00  0.1782491E+01
0.1812320E+01  0.5734372E+00  0.1789024E+01
0.1794794E+01  0.5557356E+00  0.1773090E+01
0.1637325E+01  0.5533192E+00  0.1625397E+01
0.1761146E+01  0.5591762E+00  0.1742008E+01
0.1789115E+01  0.5788851E+00  0.1767723E+01
0.1693317E+01  0.6123782E+00  0.1678286E+01
0.1522396E+01  0.5359490E+00  0.1516901E+01
0.1814654E+01  0.6254783E+00  0.1790734E+01
0.1726166E+01  0.5505978E+00  0.1709082E+01
0.1691322E+01  0.5307786E+00  0.1676509E+01
0.1516987E+01  0.5143680E+00  0.1512004E+01
0.1661909E+01  0.5147686E+00  0.1648605E+01
0.1761865E+01  0.6508066E+00  0.1742322E+01
0.1692174E+01  0.5698207E+00  0.1677301E+01
0.1780214E+01  0.6037461E+00  0.1759696E+01
[...]
POINT_DATA    3280
SCALARS hauteur float
LOOKUP_TABLE DEFAULT
       1.5668406E-02
       1.4649586E-05
       5.2215080E-05
       1.5695003E-02
       1.4061146E-02
       1.3623301E-02
       2.6147610E-02
       3.8488846E-03
       1.7166501E-02
       2.4580112E-02
       2.4582634E-02
       2.1892893E-02
       2.1384500E-02
       2.1724162E-02
       2.3486445E-02
       5.0297251E-04
       2.1735203E-02
       2.3674730E-02
       1.5680356E-02
       1.9860142E-02
       2.2940588E-02
       2.2702328E-02
       2.4830266E-02
       2.3415133E-02
       2.3751053E-02
       2.3919962E-02
       2.3279479E-02
       2.0544343E-02
       2.6588930E-02
       2.3679542E-02
       2.5492565E-02
       2.4383673E-02
       2.5395536E-02
       2.6213515E-02
       1.9936789E-02
       2.2408006E-02
       2.2791013E-02
       2.1114962E-02
       2.0377299E-02
       2.4243685E-02
       2.1441210E-02
       1.9048460E-02
       1.9514469E-02
       2.0990741E-02
       1.8771436E-02
       2.0081105E-02
       2.4686432E-02
       1.9429899E-02
       2.0270749E-02
       2.2456839E-02
       2.1361116E-02
       2.1865289E-02
       1.9556730E-02
       2.5865400E-02
       2.4725868E-02
       2.5602532E-02
       2.1579733E-02
       1.9658691E-02
       2.2771637E-02
       1.8936938E-02
       2.1349955E-02
       2.0414897E-02
       2.1842797E-02
       1.7705915E-02
       2.1676980E-02
       2.0906132E-02
       2.0325704E-02
       2.8757919E-04
       2.5763391E-02
       1.7935134E-02
       2.3031255E-02
       1.8635121E-02
       1.8152379E-02
       2.0724021E-02
       1.0999231E-02
       2.5127872E-02
       2.6397354E-02
       2.7925958E-02
       2.6951386E-02
       2.6663858E-02
       2.8117577E-02
       2.7211039E-02
       2.7393688E-02
       2.7096256E-02
       2.7728150E-02
       2.6113231E-02
       2.8710062E-02
       2.5086579E-02
       2.3963284E-02
       2.4318728E-02
       2.5410415E-02
       2.8141414E-02
       3.0011216E-02
       2.8883573E-02
       2.9213047E-02
       2.3744603E-02
       2.0044885E-02
       1.9311682E-02
       1.9222963E-02
       1.7974064E-02
       1.9180095E-02
       1.8418933E-02
       1.6534878E-02
       2.0348400E-02
       2.0985469E-02
       2.1222714E-02
       2.2443153E-02
       2.0933351E-02
       2.0207428E-02
       2.1894871E-02
       1.8928850E-02
       1.9517327E-02
       1.8517226E-02
       2.0378098E-02
       2.1688023E-02
       2.2672120E-02
       1.6427679E-02
       2.3200866E-02
       2.2248665E-02
       1.7404526E-02
       1.6741316E-02
       1.7597202E-02
       1.7835869E-02
       2.2700347E-02
       2.3548444E-02
       2.4502219E-02
       2.1637728E-02
       1.7430837E-02
       1.7169051E-02
       1.6276132E-02
       1.4464717E-02
       1.6243276E-04
       1.5800474E-02
       1.5389084E-02
       1.5449122E-02
       1.2493499E-02
       1.4002207E-02
       1.8112104E-02
       1.5030891E-02
       1.2749301E-02
       8.7901565E-03
       1.5896252E-02
       1.6789933E-02
       1.4700312E-02
       1.5938779E-02
       1.6661400E-02
       1.7788825E-02
       1.5115991E-02
       2.5263022E-02
       2.7765569E-02
       2.5851988E-02
       2.8871795E-02
       2.6913739E-02
       2.7980954E-02
       3.0168492E-02
       2.6581553E-02
       1.7747371E-02
       1.4867295E-02
       2.3096986E-02
       2.7105948E-02
       2.0035237E-02
       1.6723086E-03
       2.6701387E-02
       2.9668842E-02
       2.3772792E-02
       1.3927492E-02
       1.7390206E-02
       1.7904401E-02
       1.6174477E-02
       1.9442133E-02
       2.0845225E-02
       2.4663583E-02
       2.8622496E-02
       2.9738726E-02
       9.1267153E-03
       4.9530566E-03
       2.2900136E-02
       1.2729777E-02
       7.1460415E-03
       1.5052340E-02
       9.6809947E-03
       7.3537097E-03
       1.5363567E-02
       1.3699829E-02
       2.5168288E-02
       2.9251424E-02
       2.8665505E-02
       3.1320947E-02
       2.9202177E-02
       3.0092582E-02
       2.7153203E-02
       1.2858310E-02
       2.6460699E-02
       2.8185809E-02
       2.1280894E-02
       2.4603033E-02
       2.4080775E-02
       2.0993301E-02
       1.6476328E-02
       1.4702216E-02
       1.6625951E-02
       1.5249981E-02
       1.6809512E-02
       1.7755109E-02
       1.2406903E-02
       2.6181147E-02
       1.8687069E-02
       1.3799280E-02
       1.0832997E-02
       1.3022087E-02
       1.2830147E-02
       1.4072280E-02
       2.0708863E-02
       1.5967229E-02
       1.4271210E-02
       1.8723437E-02
       2.4851571E-02
       1.2252194E-02
       1.7324181E-02
       1.8901488E-02
       2.5255247E-02
       1.9823615E-02
       1.5576385E-02
       1.8858158E-02
       1.4968063E-02
       2.3318629E-02
       1.9675566E-02
       1.6362032E-02
       2.2610013E-02
       1.8907179E-02
       1.6899294E-02
       1.6391499E-02
       1.7295000E-02
       1.6954144E-02
       1.0902877E-02
       1.1675454E-02
       2.3263208E-04
       1.4959209E-02
       7.6010582E-03
       1.4387189E-02
       1.5795185E-02
       1.8582687E-02
       1.6789108E-02
       1.3017863E-02
       1.0393701E-02
       1.0655291E-02
       1.2180252E-02
       1.3050752E-02
       1.3113876E-02
       1.4673881E-02
       1.9951976E-02
       2.7397373E-02
       1.6790684E-02
       1.8273305E-02
       2.0213651E-02
       2.2479666E-02
       7.4963907E-03
       1.0141189E-02
       6.9010263E-03
       3.0028886E-03
       3.2087494E-03
       4.2030157E-03
       1.1725887E-02
       1.2125680E-02
       4.0011981E-03
       1.6200160E-02
       6.6573231E-03
       1.5034148E-02
       4.8700391E-03
       1.1448980E-03
       1.1832113E-02
       1.8407900E-02
       1.7349924E-02
       1.8839102E-02
       9.0852663E-03
       1.7676960E-02
       2.3018495E-02
       2.1164654E-02
       2.7353536E-02
       2.5540070E-02
       2.2964951E-02
       2.5522746E-02
       1.2723471E-02
       6.4014249E-03
       2.1765631E-02
       9.5142847E-03
       2.1003708E-02
       7.0273816E-03
       2.8368961E-02
       2.8686831E-02
       2.9800148E-02
       3.0449104E-02
       3.1088084E-02
       2.6218446E-02
       2.5336909E-02
       2.7452999E-02
       2.4853870E-02
       2.4973083E-02
       2.2175933E-02
       2.4113311E-02
       2.0506917E-02
       2.3955101E-02
       2.3287730E-02
       1.3485955E-02
       1.1273195E-02
       9.7772599E-03
       1.5752257E-02
       1.9685838E-02
       9.9505042E-03
       1.3178180E-02
       2.0753620E-02
       2.2360084E-02
       1.1671010E-02
       1.7939853E-02
       1.2648296E-02
       1.7321929E-02
       1.5525966E-02
       1.6258610E-02
       1.6649985E-02
       1.2885782E-02
       7.8703675E-03
       1.6107459E-04
       1.3878614E-02
       4.6975638E-03
       1.5362525E-02
       1.4343509E-02
       1.9746484E-02
       3.9073380E-04
       1.0856905E-02
       1.5041139E-02
       1.3867749E-02
       1.8427910E-02
       1.7847362E-02
       3.4960144E-03
       2.1641851E-02
       4.2098195E-03
       1.6160788E-02
       2.3484006E-02
       3.6614263E-03
       1.5195870E-03
       1.8000622E-02
       1.7539962E-02
       1.8978103E-02
       1.9092198E-02
       1.2609978E-02
       1.9020771E-02
       1.7875270E-02
       1.8856561E-02
       2.0074769E-02
       1.7719651E-02
       1.4628755E-02
       1.6470610E-02
       1.7642214E-02
       1.0728471E-03
       1.0702642E-02
       1.0088496E-02
       1.2426834E-02
       4.6212866E-03
       4.1638708E-03
       1.9572224E-03
       2.1951765E-03
       1.4563140E-03
       1.7991606E-02
       1.9196694E-02
       1.6373321E-02
       1.3548372E-02
       1.7729298E-02
       1.1482002E-02
       5.1254769E-03
       9.6810984E-03
       5.6949590E-03
       4.5093826E-03
       3.4397185E-03
       5.0614115E-03
       6.3316469E-03
       2.7761598E-02
       3.2296467E-02
       3.0055741E-02
       3.1080028E-02
       3.2521491E-02
       3.0599490E-02
       3.1989645E-02
       3.3874511E-02
       3.3120676E-02
       3.4864361E-02
       3.2638054E-02
       3.4146348E-02
       3.6201249E-02
       3.5049535E-02
       3.5047724E-02
       3.4958025E-02
       3.3628814E-02
       3.1481416E-02
       3.0592280E-02
       3.1473996E-02
       3.0915681E-02
       3.2240906E-02
       3.3766960E-02
       3.3536533E-02
       2.9246912E-02
       2.6734474E-02
       2.9088766E-02
       2.7304892E-02
       2.6548096E-02
       3.0825148E-02
       3.2641097E-02
       3.2141714E-02
       3.1470366E-02
       3.1305340E-02
       3.2298658E-02
       3.4397231E-02
       3.3574248E-02
       3.0782341E-02
       3.3186437E-02
       3.3976919E-02
       3.4739177E-02
       3.3647433E-02
       3.1542797E-02
       3.1946907E-02
       3.6854575E-02
       3.3619182E-02
       3.6801390E-02
       3.5663961E-02
       3.5781980E-02
       3.6093228E-02
       3.8140189E-02
       3.7132885E-02
       3.7120355E-02
       3.5329069E-02
       3.6550469E-02
       3.8661262E-02
       3.7532937E-02
       3.8377049E-02
       3.5565812E-02
       4.0472257E-02
       3.5106670E-02
       3.9252115E-02
       3.3059985E-02
       3.7121180E-02
       3.9477219E-02
       4.0544403E-02
       4.0447902E-02
       4.2272476E-02
       4.1494468E-02
       4.0923630E-02
       3.9061473E-02
       3.4354450E-02
       3.6125222E-02
       4.1342345E-02
       4.1312610E-02
       4.1698929E-02
       4.3297963E-02
       4.2740484E-02
       4.0330266E-02
       4.2981488E-02
       3.3552052E-02
       3.4946923E-02
       4.2260426E-02
       4.1873618E-02
       4.1719286E-02
       4.2625139E-02
       4.3242194E-02
       3.1940653E-02
       3.5046677E-02
       4.4305434E-02
       3.3854701E-02
       3.7190255E-02
       4.3611444E-02
       4.4211192E-02
       3.1697265E-02
       3.6372240E-02
       3.7698953E-02
       4.3601381E-02
       4.4519322E-02
       4.4327489E-02
       4.5652972E-02
       4.5272626E-02
       3.2697406E-02
       3.1780808E-02
       3.3062270E-02
       2.9639372E-02
       3.3273179E-02
       3.0763694E-02
       3.1113135E-02
       3.0364565E-02
       4.5145452E-02
       4.6667502E-02
       2.9701178E-02
       4.4919955E-02
       4.5520113E-02
       4.5070026E-02
       4.6124432E-02
       2.8567329E-02
       3.0086307E-02
       2.9216421E-02
       2.7770995E-02
       2.8628982E-02
       2.8569579E-02
       4.5193304E-02
       4.4294727E-02
       4.5928326E-02
       4.5013406E-02
       2.7775008E-02
       2.6943830E-02
       4.3598317E-02
       4.6726070E-02
       4.5826651E-02
       4.3372003E-02
       2.7080586E-02
       4.6376094E-02
       4.4096512E-02
       4.3078233E-02
       2.8049092E-02
       4.5760488E-02
       4.6532061E-02
       4.4682887E-02
       4.7579327E-02
       4.4880237E-02
       4.7143901E-02
       4.7129836E-02
       4.7193826E-02
       4.7457520E-02
       4.7169109E-02
       4.6575133E-02
       4.6343661E-02
       4.8009045E-02
       4.7638843E-02
       4.8068999E-02
       4.7683922E-02
       4.7882343E-02
       2.7625669E-02
       1.2127804E-02
       8.8101469E-03
       3.3748428E-03
       6.4620082E-03
       3.7612097E-03
       5.6056229E-03
       5.2522151E-03
       7.2397294E-03
       7.7946304E-03
       6.7648337E-03
       8.6469412E-03
       1.0298279E-04
       4.7499462E-04
       4.2859647E-03
       4.8247203E-03
       2.8876247E-03
       1.3731179E-03
       5.1328925E-03
       7.9511995E-04
       7.5738189E-04
       3.2354210E-03
       1.7503248E-03
       9.0227352E-04
       1.6683083E-03
       1.4701552E-04
       2.5883803E-02
       2.0022151E-02
       1.9259307E-02
       2.0912203E-02
       1.9809948E-02
       2.0245797E-02
       2.1062612E-02
       2.4415416E-02
       2.2841022E-02
       2.3710689E-02
       2.4549731E-02
       2.3010503E-02
       2.3651904E-02
       2.2154288E-02
       2.3813862E-02
       2.4769103E-02
       2.4374916E-02
       2.5614548E-02
       2.6471522E-02
       2.5678541E-02
       2.4458098E-02
       2.2923045E-02
       2.3701578E-02
       2.3078824E-02
       2.3677609E-02
       2.4766898E-02
       2.3954143E-02
       2.3023532E-02
       2.3920340E-02
       2.3328121E-02
       2.3883149E-02
       2.1729887E-02
       2.3820716E-02
       2.1838976E-02
       2.5198462E-02
       2.2889056E-02
       2.4727161E-02
       2.5706360E-02
       2.2313662E-02
       2.2707853E-02
       2.3949139E-02
       2.5523632E-02
       2.7084590E-02
       2.6177058E-02
       2.5347408E-02
       2.7477113E-02
       2.5994260E-02
       2.6850049E-02
       2.6117127E-02
       2.5016521E-02
       2.6747766E-02
       2.6407127E-02
       2.7626987E-02
       2.6275509E-02
       2.7087050E-02
       2.9075708E-02
       2.8032950E-02
       2.9245011E-02
       1.5473909E-02
       1.6874313E-02
       1.7846417E-02
       1.8352771E-02
       1.7767943E-02
       1.6081426E-02
       1.0162751E-02
       2.7403096E-03
       9.9367588E-03
       5.9838723E-03
       1.8175702E-02
       2.0520032E-02
       1.5479802E-02
       1.4493755E-02
       1.8621192E-02
       1.8713403E-02
       1.7599111E-02
       1.5925740E-02
       1.6451783E-02
       1.6935240E-02
       1.6689223E-02
       1.7896670E-02
       1.3802234E-02
       1.4069071E-02
       1.5542741E-02
       1.5186181E-02
       1.2910201E-02
       1.4155884E-02
       1.4760300E-02
       1.1214346E-02
       9.2010533E-03
       1.2904616E-02
       1.1754905E-02
       1.2837946E-02
       1.3203008E-02
       1.6334108E-02
       1.1387732E-02
       1.3244787E-02
       4.9930866E-03
       2.5467968E-03
       3.1162221E-03
       1.9214587E-03
       2.0154437E-02
       1.9821116E-02
       1.9772294E-02
       6.0166220E-03
       7.1454899E-03
       7.8139732E-03
       5.2676735E-03
       5.5502020E-03
       3.9064756E-03
       2.8785097E-02
       2.9063693E-02
       3.1802945E-02
       2.9460294E-02
       3.1588795E-02
       2.8169579E-02
       3.3369131E-02
       2.7228321E-02
       3.5009571E-02
       3.3505562E-02
       2.9773277E-02
       3.1748543E-02
       1.9250628E-02
       3.5118576E-02
       2.3931536E-02
       2.4602223E-02
       1.2143204E-02
       2.3458588E-02
       3.5701506E-02
       1.6343971E-02
       1.1784545E-02
       1.6239618E-02
       1.5665149E-02
       3.4383892E-02
       3.6288473E-02
       2.5360364E-02
       2.3749810E-02
       3.2824395E-02
       3.7352070E-02
       3.8114862E-02
       3.2451801E-02
       3.6489319E-02
       3.9877857E-02
       3.9285742E-02
       4.4717923E-02
       4.2557384E-02
       4.6208304E-02
       4.5604265E-02
       4.5984985E-02
       4.5393009E-02
       4.6214419E-02
       4.7218310E-02
       4.6684925E-02
       4.6878327E-02
       4.6463306E-02
       4.3039189E-02
       4.4202934E-02
       4.2393311E-02
       4.4029960E-02
       4.6907273E-02
       4.7044963E-02
       4.6137399E-02
       4.5716118E-02
       4.6238412E-02
       4.7721477E-02
       4.8603430E-02
       7.7265356E-03
       6.0591319E-04
       2.2395731E-03
       1.8888021E-04
       2.1343750E-02
       2.1938266E-02
       2.0317889E-02
       2.1100813E-02
       2.1531243E-02
       2.5715133E-02
       2.7759825E-02
       2.7377946E-02
       2.2066076E-02
       2.1246651E-02
       2.0462016E-02
       2.5168985E-02
       2.4608211E-02
       2.2309219E-02
       2.7424485E-02
       3.0419046E-02
       4.4366193E-03
       2.1051810E-03
       6.4623516E-03
       2.9161913E-03
       3.9890437E-03
       9.3297276E-03
       7.2894226E-04
       3.7348677E-03
       2.5712049E-04
       6.6745669E-04
       5.3284614E-04
       9.5229146E-04
       5.6417142E-04
       1.7080838E-03
       1.4867566E-04
       1.2287062E-02
       1.3428702E-02
       6.1304126E-03
       8.9650927E-03
       1.9473020E-02
       1.9741536E-02
       2.0992001E-02
       2.0924554E-02
       2.1633948E-02
       2.2289750E-02
       2.2657923E-02
       1.4181161E-02
       1.3963804E-02
       1.6628698E-02
       1.6442701E-02
       9.7265353E-03
       1.4562776E-02
       1.5517334E-02
       6.7848391E-03
       1.5223757E-02
       1.6628679E-02
       1.7795026E-02
       1.7325305E-02
       1.8873679E-02
       1.7273644E-02
       8.2930422E-04
       1.8799303E-02
       1.5640822E-02
       1.8626104E-02
       1.4969703E-02
       1.4785516E-02
       1.4854696E-02
       9.3655286E-03
       1.2749629E-02
       1.1621376E-02
       1.1484729E-02
       1.1196553E-02
       6.0591602E-03
       1.4531239E-03
       1.7631514E-02
       1.6991634E-02
       1.9016090E-02
       1.4197835E-02
       1.4471048E-02
       1.3679003E-02
       1.5678794E-02
       1.4955379E-02
       1.4275846E-02
       1.6900390E-02
       1.0261920E-02
       1.7452711E-03
       1.4875661E-03
       2.3868868E-02
       1.9183336E-02
       1.2733128E-02
       1.5279645E-02
       1.2451343E-02
       1.7426443E-02
       2.0111983E-02
       1.9598479E-02
       3.7024972E-02
       3.8464492E-02
       3.8581058E-02
       3.9282783E-02
       3.8989647E-02
       4.0002671E-02
       3.8042294E-02
       3.8003830E-02
       3.9354584E-02
       3.8175189E-02
       4.4858029E-02
       4.5026574E-02
       4.8376083E-02
       4.1366061E-02
       4.2982597E-02
       4.6867618E-02
       4.6527387E-02
       4.7202984E-02
       4.6283851E-02
       4.5215931E-02
       4.7593886E-02
       3.9124837E-02
       4.7699472E-02
       4.8031157E-02
       4.2821827E-02
       3.7928976E-02
       4.8395938E-02
       4.8432522E-02
       4.7323360E-02
       4.7828925E-02
       4.7764914E-02
       3.7872525E-02
       4.8624796E-02
       4.3750021E-02
       4.8282611E-02
       4.1774164E-02
       4.7942492E-02
       4.8309360E-02
       4.8180044E-02
       4.8144991E-02
       4.8524495E-02
       4.7187013E-02
       4.8928920E-02
       4.4877521E-02
       4.8790166E-02
       4.4176721E-02
       4.3949759E-02
       4.8829201E-02
       4.8722493E-02
       4.5564655E-02
       4.3284112E-02
       1.5707008E-02
       4.8595199E-02
       1.6278632E-02
       4.8777370E-02
       4.5120959E-02
       4.9052585E-02
       4.1687566E-02
       4.0215940E-02
       4.8964605E-02
       4.9168758E-02
       4.9087888E-02
       4.9146543E-02
       4.8748326E-02
       4.8907204E-02
       4.3763949E-02
       4.2938647E-02
       4.4053722E-02
       4.1834790E-02
       4.0847235E-02
       4.7763354E-02
       4.1802967E-02
       4.4251113E-02
       4.0616469E-02
       4.1655384E-02
       4.2447847E-02
       4.9174731E-02
       4.5780660E-02
       4.8098685E-02
       4.3053679E-02
       4.7748056E-02
       4.3721343E-02
       4.2957187E-02
       4.1593011E-02
       4.0405994E-02
       4.2144740E-02
       4.2516882E-02
       4.2922021E-02
       4.2285431E-02
       4.1398558E-02
       4.1921469E-02
       4.0888944E-02
       4.1608618E-02
       4.0042571E-02
       3.9089479E-02
       4.0133511E-02
       3.9332895E-02
       3.9867165E-02
       4.0853781E-02
       3.9880080E-02
       3.8644166E-02
       3.7675360E-02
       3.7731402E-02
       3.7859357E-02
       3.6587898E-02
       3.7748120E-02
       3.8772938E-02
       4.4322136E-02
       4.6802904E-02
       4.5366485E-02
       4.6042285E-02
       4.7424779E-02
       4.8385855E-02
       4.8223630E-02
       4.8333376E-02
       4.8202366E-02
       4.7735405E-02
       4.8476406E-02
       4.8035421E-02
       4.8726908E-02
       4.7930969E-02
       4.8727763E-02
       4.8519011E-02
       4.8887574E-02
       4.8246491E-02
       4.8084472E-02
       4.8181314E-02
       4.7300575E-02
       4.8421127E-02
       4.7794619E-02
       4.7246770E-02
       4.8488766E-02
       4.8473028E-02