# vtk DataFile Version 3.0
# Solution du M1 TR
ASCII
DATASET UNSTRUCTURED_GRID
POINTS   3280  float
0.0000000E+00  0.0000000E+00  0.2448522E-01
0.2000000E+01  0.0000000E+00  0.1960202E+01
0.2000000E+01  0.1000000E+01  0.1960340E+01
0.0000000E+00  0.1000000E+01  0.2443641E-01
0.1000000E+01  0.0000000E+00  0.9912605E+00
0.1000000E+01  0.1000000E+01  0.9912916E+00
0.1500000E+01  0.5000000E+00  0.1497303E+01
0.1500000E+01  0.0000000E+00  0.1474397E+01
0.1723284E+01  0.3570951E+00  0.1704992E+01
0.1500000E+01  0.2500000E+00  0.1495475E+01
0.1515103E+01  0.2763186E+00  0.1510323E+01
0.1594866E+01  0.2826386E+00  0.1585939E+01
0.1562500E+01  0.1875000E+00  0.1553746E+01
0.1534357E+01  0.1819434E+00  0.1526374E+01
0.1561083E+01  0.3343258E+00  0.1554316E+01
0.1750000E+01  0.0000000E+00  0.1715528E+01
0.1503267E+01  0.1622339E+00  0.1495750E+01
0.1514910E+01  0.2261192E+00  0.1509287E+01
0.1610795E+01  0.1290247E+00  0.1594751E+01
0.1539062E+01  0.1536458E+00  0.1529013E+01
0.1510772E+01  0.1982718E+00  0.1504433E+01
0.1541862E+01  0.2179813E+00  0.1534823E+01
0.1475030E+01  0.2178147E+00  0.1471076E+01
0.1539206E+01  0.2578835E+00  0.1532925E+01
0.1521085E+01  0.2465697E+00  0.1515451E+01
0.1496499E+01  0.2146241E+00  0.1491375E+01
0.1481433E+01  0.1870688E+00  0.1475836E+01
0.1586261E+01  0.1960616E+00  0.1576180E+01
0.1460896E+01  0.2899333E+00  0.1458796E+01
0.1542195E+01  0.2867649E+00  0.1536075E+01
0.1486080E+01  0.2754813E+00  0.1482620E+01
0.1536278E+01  0.3247610E+00  0.1530861E+01
0.1510131E+01  0.3295675E+00  0.1506111E+01
0.1455545E+01  0.2514402E+00  0.1453177E+01
0.1610995E+01  0.1909452E+00  0.1599726E+01
0.1564462E+01  0.2395252E+00  0.1556741E+01
0.1571524E+01  0.3026484E+00  0.1563932E+01
0.1613657E+01  0.2555806E+00  0.1603553E+01
0.1633998E+01  0.2714643E+00  0.1622571E+01
0.1534973E+01  0.3650914E+00  0.1529381E+01
0.1583157E+01  0.2286349E+00  0.1574100E+01
0.1586501E+01  0.1581416E+00  0.1574734E+01
0.1651985E+01  0.2274641E+00  0.1639238E+01
0.1619170E+01  0.2936434E+00  0.1608707E+01
0.1678889E+01  0.2641389E+00  0.1664272E+01
0.1642286E+01  0.2930521E+00  0.1630223E+01
0.1526415E+01  0.3446283E+00  0.1521425E+01
0.1662420E+01  0.3044259E+00  0.1648974E+01
0.1636786E+01  0.2469276E+00  0.1625252E+01
0.1588953E+01  0.3366240E+00  0.1580567E+01
0.1616427E+01  0.3314099E+00  0.1606305E+01
0.1598305E+01  0.3102698E+00  0.1589195E+01
0.1655410E+01  0.2614708E+00  0.1642461E+01
0.1487553E+01  0.3072167E+00  0.1484381E+01
0.1520126E+01  0.3036443E+00  0.1515357E+01
0.1477894E+01  0.2544664E+00  0.1474649E+01
0.1567847E+01  0.2133479E+00  0.1559236E+01
0.1663947E+01  0.3299725E+00  0.1650710E+01
0.1567022E+01  0.2696000E+00  0.1559571E+01
0.1678598E+01  0.3509559E+00  0.1664005E+01
0.1611933E+01  0.3827205E+00  0.1601694E+01
0.1640491E+01  0.3197373E+00  0.1628777E+01
0.1588015E+01  0.2526666E+00  0.1579241E+01
0.1708471E+01  0.3144917E+00  0.1691468E+01
0.1606944E+01  0.3564315E+00  0.1597242E+01
0.1604614E+01  0.2314093E+00  0.1594527E+01
0.1643491E+01  0.3631133E+00  0.1631405E+01
0.2000000E+01  0.5000000E+00  0.1960497E+01
0.1494727E+01  0.3621796E+00  0.1491318E+01
0.1701807E+01  0.3477237E+00  0.1685211E+01
0.1572156E+01  0.3701847E+00  0.1564615E+01
0.1688392E+01  0.3285111E+00  0.1673229E+01
0.1695932E+01  0.3904821E+00  0.1679757E+01
0.1636337E+01  0.3418163E+00  0.1624969E+01
0.1505941E+01  0.9448485E-01  0.1487208E+01
0.1423727E+01  0.1910920E+00  0.1420654E+01
0.1481447E+01  0.3359634E+00  0.1478825E+01
0.1441613E+01  0.3726133E+00  0.1441007E+01
0.1466699E+01  0.3599060E+00  0.1464817E+01
0.1476682E+01  0.4107296E+00  0.1474470E+01
0.1434448E+01  0.3273535E+00  0.1434061E+01
0.1464523E+01  0.3867258E+00  0.1462937E+01
0.1456903E+01  0.3373583E+00  0.1455546E+01
0.1454188E+01  0.3132491E+00  0.1452639E+01
0.1424069E+01  0.2919612E+00  0.1423549E+01
0.1490969E+01  0.3884111E+00  0.1487961E+01
0.1428051E+01  0.4202828E+00  0.1428390E+01
0.1513790E+01  0.3782958E+00  0.1509425E+01
0.1547789E+01  0.4092466E+00  0.1541752E+01
0.1535154E+01  0.3889763E+00  0.1529668E+01
0.1512699E+01  0.4170463E+00  0.1508723E+01
0.1441554E+01  0.3983607E+00  0.1441155E+01
0.1395941E+01  0.3853832E+00  0.1397725E+01
0.1420578E+01  0.3854393E+00  0.1421107E+01
0.1408336E+01  0.3518173E+00  0.1409275E+01
0.1549967E+01  0.3074339E+00  0.1543715E+01
0.1651639E+01  0.4114272E+00  0.1639012E+01
0.1668616E+01  0.3788978E+00  0.1654697E+01
0.1674624E+01  0.4027285E+00  0.1660412E+01
0.1706988E+01  0.4343785E+00  0.1690110E+01
0.1673984E+01  0.4357547E+00  0.1659662E+01
0.1695270E+01  0.4139894E+00  0.1679455E+01
0.1737273E+01  0.4034108E+00  0.1717412E+01
0.1645630E+01  0.3875965E+00  0.1633471E+01
0.1625874E+01  0.4052508E+00  0.1614953E+01
0.1627808E+01  0.4540126E+00  0.1617342E+01
0.1587158E+01  0.4136289E+00  0.1578781E+01
0.1633718E+01  0.4293591E+00  0.1622693E+01
0.1651607E+01  0.4466828E+00  0.1639298E+01
0.1605650E+01  0.4356658E+00  0.1596354E+01
0.1682168E+01  0.4808869E+00  0.1667021E+01
0.1671711E+01  0.4594749E+00  0.1657894E+01
0.1698428E+01  0.4596870E+00  0.1682441E+01
0.1646221E+01  0.4851828E+00  0.1634218E+01
0.1607747E+01  0.4151289E+00  0.1598077E+01
0.1584205E+01  0.4841185E+00  0.1576363E+01
0.1747573E+01  0.4622079E+00  0.1726788E+01
0.1568396E+01  0.4481495E+00  0.1561306E+01
0.1601760E+01  0.4629165E+00  0.1593002E+01
0.1723356E+01  0.4540167E+00  0.1705027E+01
0.1732897E+01  0.4294241E+00  0.1713301E+01
0.1722218E+01  0.4972746E+00  0.1703601E+01
0.1715121E+01  0.4754441E+00  0.1697331E+01
0.1584567E+01  0.4345797E+00  0.1576588E+01
0.1563465E+01  0.4258523E+00  0.1556764E+01
0.1534166E+01  0.4440258E+00  0.1529047E+01
0.1615090E+01  0.4918227E+00  0.1605427E+01
0.1717469E+01  0.4134541E+00  0.1699600E+01
0.1718488E+01  0.3909170E+00  0.1700212E+01
0.1741353E+01  0.3769080E+00  0.1721126E+01
0.1781199E+01  0.4241746E+00  0.1756795E+01
0.2000000E+01  0.2500000E+00  0.1960357E+01
0.1756308E+01  0.4199875E+00  0.1734675E+01
0.1762447E+01  0.3937207E+00  0.1740198E+01
0.1765097E+01  0.4438197E+00  0.1742361E+01
0.1807974E+01  0.4625425E+00  0.1779254E+01
0.1789176E+01  0.4471344E+00  0.1763290E+01
0.1514158E+01  0.1287364E+00  0.1502619E+01
0.1777674E+01  0.4803377E+00  0.1753565E+01
0.1811145E+01  0.4395021E+00  0.1783186E+01
0.1850404E+01  0.4566449E+00  0.1817609E+01
0.1748483E+01  0.3522599E+00  0.1727640E+01
0.1731235E+01  0.3304535E+00  0.1712208E+01
0.1777870E+01  0.3654441E+00  0.1754394E+01
0.1748149E+01  0.2821176E+00  0.1727432E+01
0.1732875E+01  0.3039003E+00  0.1713657E+01
0.1708314E+01  0.2807181E+00  0.1691553E+01
0.1767650E+01  0.3193756E+00  0.1745163E+01
0.1372661E+01  0.1704076E+00  0.1370196E+01
0.1411157E+01  0.2494459E+00  0.1410728E+01
0.1448000E+01  0.2246098E+00  0.1445337E+01
0.1360382E+01  0.2278583E+00  0.1361464E+01
0.1433680E+01  0.2431125E+00  0.1432207E+01
0.1388814E+01  0.2314916E+00  0.1388810E+01
0.1314549E+01  0.2124991E+00  0.1317129E+01
0.1404157E+01  0.2007613E+00  0.1402651E+01
0.1415035E+01  0.1072182E+00  0.1404639E+01
0.1520299E+01  0.1091515E+00  0.1505256E+01
0.1459010E+01  0.1690672E+00  0.1453453E+01
0.1436337E+01  0.2690050E+00  0.1435062E+01
0.1443480E+01  0.1263360E+00  0.1434967E+01
0.1625000E+01  0.0000000E+00  0.1594327E+01
0.1414954E+01  0.2197329E+00  0.1413504E+01
0.1335299E+01  0.2266424E+00  0.1337317E+01
0.1396801E+01  0.1612344E+00  0.1392655E+01
0.1792033E+01  0.3934232E+00  0.1766917E+01
0.1541310E+01  0.1264947E+00  0.1528529E+01
0.1483859E+01  0.1256971E+00  0.1472632E+01
0.1500341E+01  0.1139400E+00  0.1487016E+01
0.1498380E+01  0.1421255E+00  0.1488513E+01
0.1478242E+01  0.1468909E+00  0.1470139E+01
0.1453147E+01  0.1972183E+00  0.1449310E+01
0.1348833E+01  0.2067866E+00  0.1349789E+01
0.1368157E+01  0.2800764E+00  0.1369996E+01
0.1250000E+01  0.0000000E+00  0.1233288E+01
0.1496272E+01  0.2780308E-01  0.1471775E+01
0.1430228E+01  0.1622338E+00  0.1424808E+01
0.1544491E+01  0.1012427E+00  0.1526751E+01
0.1505524E+01  0.5428530E-01  0.1482953E+01
0.1576405E+01  0.1180891E+00  0.1560486E+01
0.1526885E+01  0.8834234E-01  0.1506353E+01
0.1558557E+01  0.6358195E-01  0.1534954E+01
0.1372206E+01  0.9428859E-01  0.1359925E+01
0.1414069E+01  0.8636887E-01  0.1399648E+01
0.1351230E+01  0.1581055E+00  0.1348831E+01
0.1371634E+01  0.2528708E+00  0.1372935E+01
0.1392978E+01  0.2694234E+00  0.1393596E+01
0.1321668E+01  0.2603105E+00  0.1325205E+01
0.1392566E+01  0.3027057E+00  0.1393674E+01
0.1345601E+01  0.2495441E+00  0.1347876E+01
0.1349996E+01  0.1827855E+00  0.1349547E+01
0.1475238E+01  0.9618066E-01  0.1459008E+01
0.1487372E+01  0.4556180E+00  0.1484958E+01
0.1432024E+01  0.3509343E+00  0.1431767E+01
0.1619231E+01  0.5383449E+00  0.1609070E+01
0.1532505E+01  0.4233173E+00  0.1527441E+01
0.1547332E+01  0.4788657E+00  0.1541741E+01
0.1627786E+01  0.4750493E+00  0.1617060E+01
0.1750658E+01  0.4911384E+00  0.1729465E+01
0.1783313E+01  0.5336292E+00  0.1757429E+01
0.1744147E+01  0.5299352E+00  0.1722715E+01
0.1772978E+01  0.5077787E+00  0.1748636E+01
0.1739682E+01  0.5092411E+00  0.1718976E+01
0.1715917E+01  0.5251974E+00  0.1697551E+01
0.1809547E+01  0.4999146E+00  0.1780231E+01
0.1486188E+01  0.5335558E+00  0.1483886E+01
0.1695320E+01  0.5058771E+00  0.1679281E+01
0.1793562E+01  0.5145404E+00  0.1766208E+01
0.1827482E+01  0.5355643E+00  0.1796330E+01
0.1805457E+01  0.5332234E+00  0.1776752E+01
0.1812320E+01  0.5734372E+00  0.1783322E+01
0.1794794E+01  0.5557356E+00  0.1767746E+01
0.1637325E+01  0.5533192E+00  0.1625850E+01
0.1761146E+01  0.5591762E+00  0.1737928E+01
0.1789115E+01  0.5788851E+00  0.1762487E+01
0.1693317E+01  0.6123782E+00  0.1677537E+01
0.1522396E+01  0.5359490E+00  0.1518238E+01
0.1814654E+01  0.6254783E+00  0.1785306E+01
0.1726166E+01  0.5505978E+00  0.1706449E+01
0.1691322E+01  0.5307786E+00  0.1675678E+01
0.1516987E+01  0.5143680E+00  0.1513256E+01
0.1661909E+01  0.5147686E+00  0.1648463E+01
0.1761865E+01  0.6508066E+00  0.1738581E+01
0.1692174E+01  0.5698207E+00  0.1676495E+01
0.1780214E+01  0.6037461E+00  0.1755055E+01
[...]
POINT_DATA    3280
SCALARS hauteur float
LOOKUP_TABLE DEFAULT
       2.4485219E-02
       6.8460831E-05
       2.0645821E-04
       2.4436413E-02
       1.1193882E-02
       1.1225056E-02
       2.7203179E-02
       4.2971214E-03
       1.6059437E-02
       2.5375499E-02
       2.5421157E-02
       2.2864922E-02
       2.2391575E-02
       2.2601346E-02
       2.4350436E-02
       4.1137603E-04
       2.2447463E-02
       2.4573653E-02
       1.6064070E-02
       2.0628822E-02
       2.3775953E-02
       2.3696160E-02
       2.5448211E-02
       2.4400973E-02
       2.4686682E-02
       2.4706313E-02
       2.3933818E-02
       2.1538076E-02
       2.7020680E-02
       2.4621822E-02
       2.6162943E-02
       2.5206505E-02
       2.6082830E-02
       2.6646456E-02
       2.0844211E-02
       2.3463319E-02
       2.3734751E-02
       2.2061040E-02
       2.1144511E-02
       2.5004509E-02
       2.2499956E-02
       1.9856527E-02
       2.0182885E-02
       2.1813282E-02
       1.8848909E-02
       2.0673370E-02
       2.5437266E-02
       1.9691987E-02
       2.1092582E-02
       2.3287657E-02
       2.2099365E-02
       2.2750447E-02
       2.0048025E-02
       2.6480118E-02
       2.5532384E-02
       2.6215105E-02
       2.2641137E-02
       1.9931098E-02
       2.3785016E-02
       1.8866760E-02
       2.1892473E-02
       2.0986477E-02
       2.2880396E-02
       1.7053223E-02
       2.2330081E-02
       2.1898127E-02
       2.0674532E-02
       3.6370384E-04
       2.6386321E-02
       1.7326506E-02
       2.3798241E-02
       1.8492496E-02
       1.7630281E-02
       2.1249385E-02
       1.1285437E-02
       2.5306220E-02
       2.6908550E-02
       2.8129887E-02
       2.7354886E-02
       2.7222968E-02
       2.8206481E-02
       2.7606389E-02
       2.7684248E-02
       2.7437862E-02
       2.7866048E-02
       2.6712743E-02
       2.8804852E-02
       2.5810118E-02
       2.4815390E-02
       2.5114128E-02
       2.6177643E-02
       2.8336022E-02
       2.9610416E-02
       2.8845791E-02
       2.9012569E-02
       2.4644836E-02
       2.0296292E-02
       1.9342944E-02
       1.9168697E-02
       1.7148517E-02
       1.9046234E-02
       1.7977398E-02
       1.4768437E-02
       2.0644432E-02
       2.1488076E-02
       2.1982741E-02
       2.3260096E-02
       2.1541286E-02
       2.0612588E-02
       2.2710554E-02
       1.8384389E-02
       1.9505103E-02
       1.7868432E-02
       2.0811899E-02
       2.2377647E-02
       2.3736666E-02
       1.4050492E-02
       2.4172892E-02
       2.3170231E-02
       1.6023492E-02
       1.4946622E-02
       1.5712280E-02
       1.6398130E-02
       2.3606062E-02
       2.4463922E-02
       2.5462761E-02
       2.2531548E-02
       1.6366305E-02
       1.5979292E-02
       1.4483863E-02
       1.1100776E-02
       2.2360690E-04
       1.3376052E-02
       1.2882802E-02
       1.2448347E-02
       7.3199265E-03
       9.7789364E-03
       1.8642649E-02
       1.1326176E-02
       8.1431466E-03
       4.0906096E-03
       1.4010787E-02
       1.5481908E-02
       1.1963346E-02
       1.4130058E-02
       1.5324088E-02
       1.7291927E-02
       1.2748011E-02
       2.4897093E-02
       2.7700441E-02
       2.6200232E-02
       2.8198395E-02
       2.7105499E-02
       2.7680429E-02
       2.8784027E-02
       2.6483564E-02
       1.7810520E-02
       1.5260984E-02
       2.3526157E-02
       2.7356937E-02
       2.0260846E-02
       1.7188760E-03
       2.6754759E-02
       2.8634442E-02
       2.3696396E-02
       1.0605895E-02
       1.7942645E-02
       1.8350917E-02
       1.6582491E-02
       2.0001265E-02
       2.1363346E-02
       2.5128907E-02
       2.7842721E-02
       2.9110594E-02
       8.2043310E-03
       5.3290321E-03
       2.3089525E-02
       1.3047237E-02
       7.4396271E-03
       1.5504071E-02
       9.9043990E-03
       7.4642738E-03
       1.5071430E-02
       1.3766226E-02
       2.4535046E-02
       2.8642790E-02
       2.8384975E-02
       2.9883251E-02
       2.8866021E-02
       2.9096704E-02
       2.6461040E-02
       1.3176538E-02
       2.7234575E-02
       2.8288449E-02
       2.2116266E-02
       2.5484016E-02
       2.5252089E-02
       2.1720882E-02
       1.3703146E-02
       9.6644865E-03
       1.3335326E-02
       1.0999798E-02
       1.3972316E-02
       1.5838372E-02
       6.7542722E-03
       2.7323210E-02
       1.7753939E-02
       8.3977523E-03
       5.2758334E-03
       7.2837445E-03
       7.1277066E-03
       8.7286685E-03
       2.1161867E-02
       1.1887916E-02
       9.0351374E-03
       1.7974574E-02
       2.6188130E-02
       6.8250498E-03
       1.4691244E-02
       1.8070285E-02
       2.6507724E-02
       1.9681693E-02
       1.1835518E-02
       1.8051890E-02
       1.0327101E-02
       2.4551238E-02
       1.9432461E-02
       1.2986076E-02
       2.3809663E-02
       1.8292251E-02
       1.4290837E-02
       1.3406986E-02
       1.5558643E-02
       1.5200467E-02
       5.9788804E-03
       7.7361937E-03
       3.7435520E-04
       1.2197856E-02
       3.6764396E-03
       1.0032356E-02
       1.1951199E-02
       1.8435526E-02
       1.5986597E-02
       8.9866630E-03
       6.0027441E-03
       6.1122880E-03
       8.0639098E-03
       9.4770911E-03
       9.5434407E-03
       1.2005124E-02
       2.0643019E-02
       2.6960220E-02
       1.7363985E-02
       1.8962072E-02
       2.1097837E-02
       2.2147230E-02
       7.3916469E-03
       1.0326849E-02
       6.9359389E-03
       3.2388940E-03
       3.0275629E-03
       4.3190487E-03
       1.1906960E-02
       1.2054598E-02
       3.4575182E-03
       1.6509628E-02
       6.2461577E-03
       1.5233761E-02
       4.6190901E-03
       1.0644423E-03
       1.1472590E-02
       1.9108079E-02
       1.7905388E-02
       1.9633035E-02
       9.4026513E-03
       1.8029854E-02
       2.2331650E-02
       2.1531094E-02
       2.6045373E-02
       2.4591874E-02
       2.1740478E-02
       2.5384132E-02
       1.2926162E-02
       6.5003807E-03
       2.1815662E-02
       9.8082304E-03
       2.0900376E-02
       7.3502381E-03
       2.8286886E-02
       2.8578627E-02
       2.9337140E-02
       2.9837260E-02
       3.0099226E-02
       2.6933309E-02
       2.6248607E-02
       2.7935909E-02
       2.5912063E-02
       2.6164992E-02
       2.3334147E-02
       2.5407696E-02
       2.0841661E-02
       2.4990529E-02
       2.4355266E-02
       8.5196232E-03
       5.7809759E-03
       4.5947875E-03
       1.1526463E-02
       1.9636048E-02
       5.0711973E-03
       7.7148021E-03
       2.1296505E-02
       2.3574822E-02
       7.1707397E-03
       1.6600500E-02
       7.8836760E-03
       1.5348088E-02
       1.2108343E-02
       1.3714837E-02
       1.4129086E-02
       7.8141814E-03
       4.0086799E-03
       1.4271810E-04
       9.7166956E-03
       2.2170080E-03
       1.2431653E-02
       9.5162347E-03
       1.9663855E-02
       4.2152219E-04
       5.4319122E-03
       1.1637213E-02
       1.0205043E-02
       1.7464617E-02
       1.6048027E-02
       3.9915843E-03
       2.2631591E-02
       1.9630486E-03
       1.4280454E-02
       2.4836283E-02
       1.7056039E-03
       8.2601675E-04
       1.6853986E-02
       1.6402377E-02
       1.8379213E-02
       1.8644095E-02
       9.3852327E-03
       1.8589988E-02
       1.7398260E-02
       1.8278575E-02
       1.9999099E-02
       1.6947797E-02
       1.1980578E-02
       1.5446138E-02
       1.7270936E-02
       5.9139766E-04
       5.6527343E-03
       5.7534599E-03
       8.2508183E-03
       4.5107473E-03
       4.4094006E-03
       2.1344919E-03
       2.1505126E-03
       1.3870914E-03
       1.8365148E-02
       1.9928810E-02
       1.6603282E-02
       1.3823042E-02
       1.7581517E-02
       1.1446564E-02
       5.5221362E-03
       9.8697789E-03
       5.9916310E-03
       4.9725235E-03
       3.7539152E-03
       5.3774282E-03
       6.5229107E-03
       2.7805071E-02
       3.1118900E-02
       2.9401992E-02
       3.0003017E-02
       3.0948672E-02
       2.9570244E-02
       3.0467189E-02
       3.1465795E-02
       3.1163714E-02
       3.2306720E-02
       3.0651264E-02
       3.1794561E-02
       3.2829784E-02
       3.2241420E-02
       3.1907934E-02
       3.2020239E-02
       3.1101764E-02
       2.9770570E-02
       2.9278985E-02
       2.9181678E-02
       2.9102268E-02
       3.0085714E-02
       3.0701292E-02
       3.0818221E-02
       2.7505233E-02
       2.4681169E-02
       2.7713089E-02
       2.6332591E-02
       2.4924400E-02
       3.0006006E-02
       3.1156943E-02
       3.0806665E-02
       3.0458270E-02
       3.0439973E-02
       3.1013781E-02
       3.2262000E-02
       3.1734192E-02
       3.0228902E-02
       3.1595916E-02
       3.2110413E-02
       3.2362134E-02
       3.1702496E-02
       3.0679985E-02
       3.0989016E-02
       3.3564880E-02
       3.1582120E-02
       3.3414300E-02
       3.2919107E-02
       3.2886103E-02
       3.2920738E-02
       3.3919288E-02
       3.3355937E-02
       3.3192955E-02
       3.2810329E-02
       3.3343444E-02
       3.4366443E-02
       3.3808481E-02
       3.4140860E-02
       3.3113779E-02
       3.5118282E-02
       3.2789770E-02
       3.4467236E-02
       3.1785639E-02
       3.3775871E-02
       3.4706224E-02
       3.5371328E-02
       3.5222478E-02
       3.6157382E-02
       3.5686902E-02
       3.5106162E-02
       3.4194536E-02
       3.2465939E-02
       3.3272584E-02
       3.5716370E-02
       3.5824672E-02
       3.5969879E-02
       3.6720461E-02
       3.6434734E-02
       3.4908083E-02
       3.6378154E-02
       3.1972192E-02
       3.2857437E-02
       3.6261507E-02
       3.6164879E-02
       3.5698619E-02
       3.6258607E-02
       3.6625567E-02
       3.1111379E-02
       3.2871379E-02
       3.7179817E-02
       3.2260638E-02
       3.3962047E-02
       3.6829838E-02
       3.7081132E-02
       3.1075196E-02
       3.3541140E-02
       3.4163410E-02
       3.6733768E-02
       3.7096411E-02
       3.7047838E-02
       3.7836828E-02
       3.7541523E-02
       3.1641387E-02
       3.1067267E-02
       3.1881660E-02
       2.9680663E-02
       3.1988423E-02
       3.0401044E-02
       3.0537268E-02
       3.0221787E-02
       3.7611395E-02
       3.8435936E-02
       2.9560365E-02
       3.7402612E-02
       3.7872874E-02
       3.7299015E-02
       3.8078748E-02
       2.8825796E-02
       2.9906695E-02
       2.9322309E-02
       2.8414090E-02
       2.9002050E-02
       2.9082436E-02
       3.7678464E-02
       3.7219635E-02
       3.8090733E-02
       3.7339967E-02
       2.8303082E-02
       2.7742969E-02
       3.6895782E-02
       3.8496562E-02
       3.7841259E-02
       3.6277743E-02
       2.7962945E-02
       3.8222440E-02
       3.6807170E-02
       3.6218335E-02
       2.8672979E-02
       3.7759488E-02
       3.8335468E-02
       3.6980437E-02
       3.9145868E-02
       3.7137235E-02
       3.8817379E-02
       3.8782230E-02
       3.8817498E-02
       3.9064426E-02
       3.8806134E-02
       3.8444148E-02
       3.8342465E-02
       3.9483166E-02
       3.9146684E-02
       3.9603838E-02
       3.9215925E-02
       3.9417192E-02
       2.7982225E-02
       6.3396861E-03
       3.9865463E-03
       1.5376656E-03
       2.8116276E-03
       1.6849878E-03
       2.4865388E-03
       2.2933096E-03
       3.4108308E-03
       3.9020484E-03
       3.3079362E-03
       4.5581302E-03
       1.8343684E-04
       3.5172280E-04
       1.9755310E-03
       2.2809973E-03
       1.3821782E-03
       7.2928922E-04
       2.3970419E-03
       4.8244012E-04
       4.7500688E-04
       1.5090203E-03
       9.0745471E-04
       5.1240535E-04
       8.4716434E-04
       1.9827656E-04
       2.7033280E-02
       2.0070046E-02
       1.8818155E-02
       2.1471008E-02
       1.9800040E-02
       2.0481904E-02
       2.1666691E-02
       2.5747988E-02
       2.4170696E-02
       2.4983901E-02
       2.5962915E-02
       2.4328938E-02
       2.5083244E-02
       2.3221110E-02
       2.5222074E-02
       2.6053948E-02
       2.5372203E-02
       2.6864983E-02
       2.7586666E-02
       2.6747446E-02
       2.5622577E-02
       2.3859954E-02
       2.4771894E-02
       2.3796031E-02
       2.4533047E-02
       2.5465979E-02
       2.4682724E-02
       2.3557257E-02
       2.4539241E-02
       2.3968852E-02
       2.4338451E-02
       2.2126935E-02
       2.4353947E-02
       2.2264009E-02
       2.5639958E-02
       2.3373029E-02
       2.5312652E-02
       2.6300268E-02
       2.2701583E-02
       2.3138131E-02
       2.4252174E-02
       2.6319151E-02
       2.7256541E-02
       2.6573384E-02
       2.5605131E-02
       2.7875665E-02
       2.6258173E-02
       2.6761199E-02
       2.6246240E-02
       2.5181763E-02
       2.7169386E-02
       2.7042822E-02
       2.8309194E-02
       2.7124576E-02
       2.7734291E-02
       2.9160683E-02
       2.8452192E-02
       2.9510602E-02
       1.1104742E-02
       1.3836682E-02
       1.5946264E-02
       1.7009333E-02
       1.6184463E-02
       1.3761330E-02
       5.4937537E-03
       1.3392599E-03
       5.7559960E-03
       2.6204602E-03
       1.7048936E-02
       2.0674825E-02
       1.3587789E-02
       1.2093420E-02
       1.8879860E-02
       1.9186392E-02
       1.7540756E-02
       1.5253676E-02
       1.5758081E-02
       1.6828504E-02
       1.6870679E-02
       1.8448206E-02
       1.3200253E-02
       1.1692600E-02
       1.3950268E-02
       1.3756915E-02
       1.1107231E-02
       1.2382020E-02
       1.3691454E-02
       7.6779268E-03
       7.4106707E-03
       1.0243603E-02
       7.3875430E-03
       9.2919125E-03
       9.3319164E-03
       1.4974367E-02
       7.2228627E-03
       9.6650647E-03
       5.1470889E-03
       2.6713155E-03
       2.7883907E-03
       1.6764521E-03
       2.1031869E-02
       1.9342042E-02
       1.8946205E-02
       6.3612676E-03
       7.4519609E-03
       8.0316079E-03
       5.6561565E-03
       5.9251782E-03
       4.2608962E-03
       2.7757176E-02
       2.6968553E-02
       2.8781261E-02
       2.6952791E-02
       2.8947216E-02
       2.5209977E-02
       3.0157234E-02
       2.4765032E-02
       3.1274851E-02
       2.9952209E-02
       2.6910388E-02
       2.8188733E-02
       1.6914049E-02
       3.0791544E-02
       2.1868731E-02
       2.2152746E-02
       9.9229641E-03
       2.0739848E-02
       3.1974284E-02
       1.4007448E-02
       1.1228501E-02
       1.4330934E-02
       1.4070238E-02
       3.0442256E-02
       3.1905648E-02
       2.4134933E-02
       2.2765178E-02
       3.1474350E-02
       3.3605910E-02
       3.3773083E-02
       3.1354436E-02
       3.3525808E-02
       3.5222261E-02
       3.4837569E-02
       3.7495084E-02
       3.6419095E-02
       3.8181996E-02
       3.7657897E-02
       3.8057228E-02
       3.7528380E-02
       3.8130026E-02
       3.9011683E-02
       3.8557193E-02
       3.8622526E-02
       3.8583491E-02
       3.5937895E-02
       3.6663501E-02
       3.5329937E-02
       3.6592898E-02
       3.8682779E-02
       3.8832859E-02
       3.8229942E-02
       3.8018531E-02
       3.8309312E-02
       3.9332534E-02
       4.0206030E-02
       3.4455597E-03
       4.6220839E-04
       1.0706816E-03
       2.7110117E-04
       2.2200816E-02
       2.3060337E-02
       2.0566905E-02
       2.1589497E-02
       2.2426512E-02
       2.6967399E-02
       2.8566205E-02
       2.8239557E-02
       2.2949111E-02
       2.1860147E-02
       2.0672848E-02
       2.6162941E-02
       2.5455462E-02
       2.2476194E-02
       2.8260888E-02
       3.0325261E-02
       2.1247718E-03
       1.0417836E-03
       3.2968056E-03
       1.4037598E-03
       1.9619362E-03
       5.4032962E-03
       4.2641421E-04
       1.8354099E-03
       1.8014633E-04
       3.6965767E-04
       3.9618782E-04
       6.2149700E-04
       3.2295571E-04
       8.6056360E-04
       1.8741358E-04
       8.2419755E-03
       1.0006126E-02
       2.8185977E-03
       4.2086717E-03
       1.9208277E-02
       1.9606373E-02
       2.1202279E-02
       2.1111512E-02
       2.2117036E-02
       2.2891446E-02
       2.3435494E-02
       1.1884757E-02
       1.1143431E-02
       1.5303528E-02
       1.6109878E-02
       5.9241169E-03
       1.3410533E-02
       1.4495630E-02
       3.5919249E-03
       1.3567548E-02
       1.6067506E-02
       1.7586533E-02
       1.7414223E-02
       1.8762793E-02
       1.7206658E-02
       8.5582654E-04
       1.8957096E-02
       1.5437963E-02
       1.8640022E-02
       1.4511195E-02
       1.4620332E-02
       1.4124379E-02
       7.4424688E-03
       1.1299613E-02
       9.1506565E-03
       1.0267155E-02
       8.9315215E-03
       4.0782953E-03
       1.5741001E-03
       1.7897397E-02
       1.7153872E-02
       1.9340293E-02
       1.1512335E-02
       1.1673890E-02
       1.0088751E-02
       1.3905909E-02
       1.2424372E-02
       1.1183806E-02
       1.5911056E-02
       5.6804598E-03
       1.6805092E-03
       1.1407321E-03
       2.2198696E-02
       1.7524540E-02
       1.1834104E-02
       1.3992733E-02
       1.1213317E-02
       1.6304418E-02
       1.8735215E-02
       1.7570114E-02
       3.2796540E-02
       3.4556206E-02
       3.4618471E-02
       3.4913348E-02
       3.4810607E-02
       3.5287834E-02
       3.4252340E-02
       3.4154739E-02
       3.4804510E-02
       3.4181608E-02
       3.7531203E-02
       3.7353198E-02
       4.1436289E-02
       3.6538298E-02
       3.5798153E-02
       3.9418673E-02
       3.8837569E-02
       3.9518196E-02
       3.8801401E-02
       3.7686035E-02
       4.0340815E-02
       3.2983881E-02
       4.0071382E-02
       4.0946860E-02
       3.5878840E-02
       3.2498736E-02
       4.0989787E-02
       4.0735851E-02
       3.9261073E-02
       3.9553427E-02
       3.9697802E-02
       3.2865266E-02
       4.0423703E-02
       3.6272528E-02
       4.0065747E-02
       3.4885158E-02
       4.0658746E-02
       3.9946572E-02
       4.0368193E-02
       4.0122381E-02
       4.0529950E-02
       3.9324493E-02
       4.0991166E-02
       3.7565341E-02
       4.0762788E-02
       3.7128102E-02
       3.6574948E-02
       4.0603881E-02
       4.0997257E-02
       3.7860261E-02
       3.6361671E-02
       1.6679458E-02
       4.1293906E-02
       1.4427579E-02
       4.1600334E-02
       3.7932362E-02
       4.1465532E-02
       3.4761974E-02
       3.3633765E-02
       4.1505346E-02
       4.1844127E-02
       4.1817304E-02
       4.2265422E-02
       4.1270452E-02
       4.1205422E-02
       3.7063443E-02
       3.5685672E-02
       3.6858791E-02
       3.5031459E-02
       3.4377734E-02
       3.9894545E-02
       3.5616328E-02
       3.6901630E-02
       3.4059913E-02
       3.5033239E-02
       3.5894918E-02
       4.2757595E-02
       3.8239088E-02
       4.0528019E-02
       3.5883463E-02
       4.0283526E-02
       3.6289392E-02
       3.5675936E-02
       3.4679263E-02
       3.3923825E-02
       3.5269974E-02
       3.5822001E-02
       3.5901415E-02
       3.5582921E-02
       3.5143562E-02
       3.5576789E-02
       3.4622600E-02
       3.5530848E-02
       3.3884095E-02
       3.3654989E-02
       3.4287846E-02
       3.3564161E-02
       3.4333552E-02
       3.4957676E-02
       3.4523736E-02
       3.3777547E-02
       3.3034442E-02
       3.2814351E-02
       3.2645796E-02
       3.1572118E-02
       3.3398631E-02
       3.3666259E-02
       3.6852964E-02
       3.8636619E-02
       3.7835901E-02
       3.8175338E-02
       3.9100315E-02
       3.9927648E-02
       3.9713797E-02
       3.9932341E-02
       3.9737168E-02
       3.9372721E-02
       4.0035935E-02
       3.9634823E-02
       4.0464864E-02
       3.9652910E-02
       4.0381409E-02
       4.0135408E-02
       4.0705669E-02
       3.9918451E-02
       3.9949211E-02
       3.9932812E-02
       3.9213948E-02
       4.0258528E-02
       3.9620593E-02
       3.9370044E-02
       4.0110570E-02
       4.0167098E-02