# vtk DataFile Version 3.0
# Solution du M1 TR
ASCII
DATASET UNSTRUCTURED_GRID
POINTS   3280  float
0.0000000E+00  0.0000000E+00  0.2351439E-01
0.2000000E+01  0.0000000E+00  0.1960273E+01
0.2000000E+01  0.1000000E+01  0.1960426E+01
0.0000000E+00  0.1000000E+01  0.2370869E-01
0.1000000E+01  0.0000000E+00  0.9925738E+00
0.1000000E+01  0.1000000E+01  0.9920145E+00
0.1500000E+01  0.5000000E+00  0.1495646E+01
0.1500000E+01  0.0000000E+00  0.1473061E+01
0.1723284E+01  0.3570951E+00  0.1700438E+01
0.1500000E+01  0.2500000E+00  0.1494916E+01
0.1515103E+01  0.2763186E+00  0.1509378E+01
0.1594866E+01  0.2826386E+00  0.1583711E+01
0.1562500E+01  0.1875000E+00  0.1552572E+01
0.1534357E+01  0.1819434E+00  0.1525526E+01
0.1561083E+01  0.3343258E+00  0.1552547E+01
0.1750000E+01  0.0000000E+00  0.1715429E+01
0.1503267E+01  0.1622339E+00  0.1495127E+01
0.1514910E+01  0.2261192E+00  0.1508629E+01
0.1610795E+01  0.1290247E+00  0.1591951E+01
0.1539062E+01  0.1536458E+00  0.1527834E+01
0.1510772E+01  0.1982718E+00  0.1503844E+01
0.1541862E+01  0.2179813E+00  0.1533872E+01
0.1475030E+01  0.2178147E+00  0.1470818E+01
0.1539206E+01  0.2578835E+00  0.1531737E+01
0.1521085E+01  0.2465697E+00  0.1514595E+01
0.1496499E+01  0.2146241E+00  0.1490956E+01
0.1481433E+01  0.1870688E+00  0.1475500E+01
0.1586261E+01  0.1960616E+00  0.1574400E+01
0.1460896E+01  0.2899333E+00  0.1458302E+01
0.1542195E+01  0.2867649E+00  0.1534686E+01
0.1486080E+01  0.2754813E+00  0.1481975E+01
0.1536278E+01  0.3247610E+00  0.1529449E+01
0.1510131E+01  0.3295675E+00  0.1504953E+01
0.1455545E+01  0.2514402E+00  0.1452918E+01
0.1610995E+01  0.1909452E+00  0.1597345E+01
0.1564462E+01  0.2395252E+00  0.1555337E+01
0.1571524E+01  0.3026484E+00  0.1562022E+01
0.1613657E+01  0.2555806E+00  0.1601017E+01
0.1633998E+01  0.2714643E+00  0.1619499E+01
0.1534973E+01  0.3650914E+00  0.1527615E+01
0.1583157E+01  0.2286349E+00  0.1572351E+01
0.1586501E+01  0.1581416E+00  0.1572932E+01
0.1651985E+01  0.2274641E+00  0.1635901E+01
0.1619170E+01  0.2936434E+00  0.1605901E+01
0.1678889E+01  0.2641389E+00  0.1660176E+01
0.1642286E+01  0.2930521E+00  0.1626844E+01
0.1526415E+01  0.3446283E+00  0.1519947E+01
0.1662420E+01  0.3044259E+00  0.1645146E+01
0.1636786E+01  0.2469276E+00  0.1622279E+01
0.1588953E+01  0.3366240E+00  0.1578317E+01
0.1616427E+01  0.3314099E+00  0.1603545E+01
0.1598305E+01  0.3102698E+00  0.1586790E+01
0.1655410E+01  0.2614708E+00  0.1638846E+01
0.1487553E+01  0.3072167E+00  0.1483516E+01
0.1520126E+01  0.3036443E+00  0.1514174E+01
0.1477894E+01  0.2544664E+00  0.1474230E+01
0.1567847E+01  0.2133479E+00  0.1557874E+01
0.1663947E+01  0.3299725E+00  0.1647079E+01
0.1567022E+01  0.2696000E+00  0.1557895E+01
0.1678598E+01  0.3509559E+00  0.1660029E+01
0.1611933E+01  0.3827205E+00  0.1598518E+01
0.1640491E+01  0.3197373E+00  0.1625529E+01
0.1588015E+01  0.2526666E+00  0.1577263E+01
0.1708471E+01  0.3144917E+00  0.1687073E+01
0.1606944E+01  0.3564315E+00  0.1594468E+01
0.1604614E+01  0.2314093E+00  0.1592245E+01
0.1643491E+01  0.3631133E+00  0.1627969E+01
0.2000000E+01  0.5000000E+00  0.1960532E+01
0.1494727E+01  0.3621796E+00  0.1490133E+01
0.1701807E+01  0.3477237E+00  0.1680869E+01
0.1572156E+01  0.3701847E+00  0.1562376E+01
0.1688392E+01  0.3285111E+00  0.1669133E+01
0.1695932E+01  0.3904821E+00  0.1675373E+01
0.1636337E+01  0.3418163E+00  0.1621814E+01
0.1505941E+01  0.9448485E-01  0.1485244E+01
0.1423727E+01  0.1910920E+00  0.1420624E+01
0.1481447E+01  0.3359634E+00  0.1477903E+01
0.1441613E+01  0.3726133E+00  0.1440242E+01
0.1466699E+01  0.3599060E+00  0.1463898E+01
0.1476682E+01  0.4107296E+00  0.1473363E+01
0.1434448E+01  0.3273535E+00  0.1433516E+01
0.1464523E+01  0.3867258E+00  0.1462008E+01
0.1456903E+01  0.3373583E+00  0.1454812E+01
0.1454188E+01  0.3132491E+00  0.1452001E+01
0.1424069E+01  0.2919612E+00  0.1423179E+01
0.1490969E+01  0.3884111E+00  0.1486780E+01
0.1428051E+01  0.4202828E+00  0.1427703E+01
0.1513790E+01  0.3782958E+00  0.1507959E+01
0.1547789E+01  0.4092466E+00  0.1539661E+01
0.1535154E+01  0.3889763E+00  0.1527831E+01
0.1512699E+01  0.4170463E+00  0.1507237E+01
0.1441554E+01  0.3983607E+00  0.1440397E+01
0.1395941E+01  0.3853832E+00  0.1397298E+01
0.1420578E+01  0.3854393E+00  0.1420513E+01
0.1408336E+01  0.3518173E+00  0.1408805E+01
0.1549967E+01  0.3074339E+00  0.1542173E+01
0.1651639E+01  0.4114272E+00  0.1634992E+01
0.1668616E+01  0.3788978E+00  0.1650796E+01
0.1674624E+01  0.4027285E+00  0.1656240E+01
0.1706988E+01  0.4343785E+00  0.1685149E+01
0.1673984E+01  0.4357547E+00  0.1655064E+01
0.1695270E+01  0.4139894E+00  0.1674871E+01
0.1737273E+01  0.4034108E+00  0.1712547E+01
0.1645630E+01  0.3875965E+00  0.1629819E+01
0.1625874E+01  0.4052508E+00  0.1611456E+01
0.1627808E+01  0.4540126E+00  0.1613609E+01
0.1587158E+01  0.4136289E+00  0.1576054E+01
0.1633718E+01  0.4293591E+00  0.1618981E+01
0.1651607E+01  0.4466828E+00  0.1634992E+01
0.1605650E+01  0.4356658E+00  0.1593102E+01
0.1682168E+01  0.4808869E+00  0.1661646E+01
0.1671711E+01  0.4594749E+00  0.1652998E+01
0.1698428E+01  0.4596870E+00  0.1677316E+01
0.1646221E+01  0.4851828E+00  0.1629469E+01
0.1607747E+01  0.4151289E+00  0.1594932E+01
0.1584205E+01  0.4841185E+00  0.1572805E+01
0.1747573E+01  0.4622079E+00  0.1721685E+01
0.1568396E+01  0.4481495E+00  0.1558517E+01
0.1601760E+01  0.4629165E+00  0.1589601E+01
0.1723356E+01  0.4540167E+00  0.1699844E+01
0.1732897E+01  0.4294241E+00  0.1708265E+01
0.1722218E+01  0.4972746E+00  0.1698030E+01
0.1715121E+01  0.4754441E+00  0.1691889E+01
0.1584567E+01  0.4345797E+00  0.1573721E+01
0.1563465E+01  0.4258523E+00  0.1554388E+01
0.1534166E+01  0.4440258E+00  0.1526950E+01
0.1615090E+01  0.4918227E+00  0.1601208E+01
0.1717469E+01  0.4134541E+00  0.1694785E+01
0.1718488E+01  0.3909170E+00  0.1695516E+01
0.1741353E+01  0.3769080E+00  0.1716424E+01
0.1781199E+01  0.4241746E+00  0.1752454E+01
0.2000000E+01  0.2500000E+00  0.1960360E+01
0.1756308E+01  0.4199875E+00  0.1729861E+01
0.1762447E+01  0.3937207E+00  0.1735560E+01
0.1765097E+01  0.4438197E+00  0.1737603E+01
0.1807974E+01  0.4625425E+00  0.1776134E+01
0.1789176E+01  0.4471344E+00  0.1759255E+01
0.1514158E+01  0.1287364E+00  0.1501255E+01
0.1777674E+01  0.4803377E+00  0.1749043E+01
0.1811145E+01  0.4395021E+00  0.1779756E+01
0.1850404E+01  0.4566449E+00  0.1815943E+01
0.1748483E+01  0.3522599E+00  0.1723098E+01
0.1731235E+01  0.3304535E+00  0.1707673E+01
0.1777870E+01  0.3654441E+00  0.1750040E+01
0.1748149E+01  0.2821176E+00  0.1722853E+01
0.1732875E+01  0.3039003E+00  0.1709120E+01
0.1708314E+01  0.2807181E+00  0.1687148E+01
0.1767650E+01  0.3193756E+00  0.1740831E+01
0.1372661E+01  0.1704076E+00  0.1370244E+01
0.1411157E+01  0.2494459E+00  0.1410697E+01
0.1448000E+01  0.2246098E+00  0.1445244E+01
0.1360382E+01  0.2278583E+00  0.1361593E+01
0.1433680E+01  0.2431125E+00  0.1432102E+01
0.1388814E+01  0.2314916E+00  0.1388887E+01
0.1314549E+01  0.2124991E+00  0.1317326E+01
0.1404157E+01  0.2007613E+00  0.1402736E+01
0.1415035E+01  0.1072182E+00  0.1403943E+01
0.1520299E+01  0.1091515E+00  0.1503337E+01
0.1459010E+01  0.1690672E+00  0.1453193E+01
0.1436337E+01  0.2690050E+00  0.1434798E+01
0.1443480E+01  0.1263360E+00  0.1434426E+01
0.1625000E+01  0.0000000E+00  0.1593612E+01
0.1414954E+01  0.2197329E+00  0.1413519E+01
0.1335299E+01  0.2266424E+00  0.1337487E+01
0.1396801E+01  0.1612344E+00  0.1392559E+01
0.1792033E+01  0.3934232E+00  0.1762773E+01
0.1541310E+01  0.1264947E+00  0.1526879E+01
0.1483859E+01  0.1256971E+00  0.1471578E+01
0.1500341E+01  0.1139400E+00  0.1485462E+01
0.1498380E+01  0.1421255E+00  0.1487557E+01
0.1478242E+01  0.1468909E+00  0.1469537E+01
0.1453147E+01  0.1972183E+00  0.1449179E+01
0.1348833E+01  0.2067866E+00  0.1349952E+01
0.1368157E+01  0.2800764E+00  0.1369967E+01
0.1250000E+01  0.0000000E+00  0.1233377E+01
0.1496272E+01  0.2780308E-01  0.1470230E+01
0.1430228E+01  0.1622338E+00  0.1424577E+01
0.1544491E+01  0.1012427E+00  0.1524516E+01
0.1505524E+01  0.5428530E-01  0.1481093E+01
0.1576405E+01  0.1180891E+00  0.1558279E+01
0.1526885E+01  0.8834234E-01  0.1504141E+01
0.1558557E+01  0.6358195E-01  0.1532741E+01
0.1372206E+01  0.9428859E-01  0.1359351E+01
0.1414069E+01  0.8636887E-01  0.1398738E+01
0.1351230E+01  0.1581055E+00  0.1348864E+01
0.1371634E+01  0.2528708E+00  0.1372998E+01
0.1392978E+01  0.2694234E+00  0.1393547E+01
0.1321668E+01  0.2603105E+00  0.1325329E+01
0.1392566E+01  0.3027057E+00  0.1393485E+01
0.1345601E+01  0.2495441E+00  0.1347995E+01
0.1349996E+01  0.1827855E+00  0.1349680E+01
0.1475238E+01  0.9618066E-01  0.1457452E+01
0.1487372E+01  0.4556180E+00  0.1483644E+01
0.1432024E+01  0.3509343E+00  0.1431105E+01
0.1619231E+01  0.5383449E+00  0.1604021E+01
0.1532505E+01  0.4233173E+00  0.1525568E+01
0.1547332E+01  0.4788657E+00  0.1539107E+01
0.1627786E+01  0.4750493E+00  0.1612921E+01
0.1750658E+01  0.4911384E+00  0.1724303E+01
0.1783313E+01  0.5336292E+00  0.1753368E+01
0.1744147E+01  0.5299352E+00  0.1717441E+01
0.1772978E+01  0.5077787E+00  0.1744127E+01
0.1739682E+01  0.5092411E+00  0.1713623E+01
0.1715917E+01  0.5251974E+00  0.1691830E+01
0.1809547E+01  0.4999146E+00  0.1777383E+01
0.1486188E+01  0.5335558E+00  0.1482245E+01
0.1695320E+01  0.5058771E+00  0.1673580E+01
0.1793562E+01  0.5145404E+00  0.1762667E+01
0.1827482E+01  0.5355643E+00  0.1794166E+01
0.1805457E+01  0.5332234E+00  0.1773680E+01
0.1812320E+01  0.5734372E+00  0.1780305E+01
0.1794794E+01  0.5557356E+00  0.1764071E+01
0.1637325E+01  0.5533192E+00  0.1620387E+01
0.1761146E+01  0.5591762E+00  0.1733073E+01
0.1789115E+01  0.5788851E+00  0.1758674E+01
0.1693317E+01  0.6123782E+00  0.1672264E+01
0.1522396E+01  0.5359490E+00  0.1515783E+01
0.1814654E+01  0.6254783E+00  0.1782513E+01
0.1726166E+01  0.5505978E+00  0.1700824E+01
0.1691322E+01  0.5307786E+00  0.1669806E+01
0.1516987E+01  0.5143680E+00  0.1511089E+01
0.1661909E+01  0.5147686E+00  0.1642784E+01
0.1761865E+01  0.6508066E+00  0.1734233E+01
0.1692174E+01  0.5698207E+00  0.1670642E+01
0.1780214E+01  0.6037461E+00  0.1750805E+01
[...]
POINT_DATA    3280
SCALARS hauteur float
LOOKUP_TABLE DEFAULT
       2.3514391E-02
       1.3985923E-04
       2.9296288E-04
       2.3708690E-02
       1.2507252E-02
       1.1947885E-02
       2.5546543E-02
       2.9608402E-03
       1.1504828E-02
       2.4815889E-02
       2.4475916E-02
       2.0636035E-02
       2.1217793E-02
       2.1753857E-02
       2.2581632E-02
       3.1216430E-04
       2.1824781E-02
       2.3916209E-02
       1.3264394E-02
       1.9450082E-02
       2.3187382E-02
       2.2744635E-02
       2.5189847E-02
       2.3213153E-02
       2.3830459E-02
       2.4287487E-02
       2.3597064E-02
       1.9757915E-02
       2.6526472E-02
       2.3232731E-02
       2.5517592E-02
       2.3794737E-02
       2.4924570E-02
       2.6387309E-02
       1.8462561E-02
       2.2060100E-02
       2.1824278E-02
       1.9525287E-02
       1.8072254E-02
       2.3239301E-02
       2.0750963E-02
       1.8055378E-02
       1.6845374E-02
       1.9007096E-02
       1.4753441E-02
       1.7294327E-02
       2.3958766E-02
       1.5863283E-02
       1.8119219E-02
       2.1037001E-02
       1.9339085E-02
       2.0345284E-02
       1.6433965E-02
       2.5614812E-02
       2.4348943E-02
       2.5795993E-02
       2.1279589E-02
       1.6299860E-02
       2.2108405E-02
       1.4890722E-02
       1.8716736E-02
       1.7738411E-02
       2.0903149E-02
       1.2658248E-02
       1.9556477E-02
       1.9616101E-02
       1.7238447E-02
       3.9864946E-04
       2.5201040E-02
       1.2984759E-02
       2.1558289E-02
       1.4396641E-02
       1.3245903E-02
       1.8093902E-02
       9.3214832E-03
       2.5276555E-02
       2.5986584E-02
       2.7364865E-02
       2.6435968E-02
       2.6116242E-02
       2.7662131E-02
       2.6677662E-02
       2.6949635E-02
       2.6799862E-02
       2.7496408E-02
       2.5530824E-02
       2.8117966E-02
       2.4344438E-02
       2.2724994E-02
       2.3277928E-02
       2.4691326E-02
       2.7577436E-02
       2.9183433E-02
       2.8252214E-02
       2.8542497E-02
       2.3102591E-02
       1.6275497E-02
       1.5441592E-02
       1.4996520E-02
       1.2187613E-02
       1.4448054E-02
       1.3394012E-02
       9.9036634E-03
       1.6991504E-02
       1.7990929E-02
       1.8249186E-02
       2.0533314E-02
       1.7828732E-02
       1.6306759E-02
       1.9458549E-02
       1.3009617E-02
       1.4609493E-02
       1.2744253E-02
       1.6062430E-02
       1.9232140E-02
       2.0179091E-02
       8.9475890E-03
       2.1384379E-02
       1.9768911E-02
       1.0840802E-02
       9.9101694E-03
       1.0141491E-02
       1.0956172E-02
       2.0739022E-02
       2.2088166E-02
       2.3365374E-02
       1.8312759E-02
       1.1551601E-02
       1.1282811E-02
       9.7824677E-03
       6.7598510E-03
       2.2675841E-04
       8.5625927E-03
       8.2441836E-03
       7.6902243E-03
       4.1995614E-03
       5.7439633E-03
       1.7279313E-02
       6.8048795E-03
       4.7131137E-03
       2.4247224E-03
       9.4684307E-03
       1.0947269E-02
       7.6095822E-03
       9.5512953E-03
       1.0786842E-02
       1.2886527E-02
       8.4163790E-03
       2.4945121E-02
       2.7669158E-02
       2.6107040E-02
       2.8328188E-02
       2.6999675E-02
       2.7757075E-02
       2.8981026E-02
       2.6568112E-02
       1.7113831E-02
       1.3342633E-02
       2.3266188E-02
       2.7092963E-02
       1.9719433E-02
       1.0037825E-03
       2.6769785E-02
       2.8804337E-02
       2.3600613E-02
       6.4619649E-03
       1.6292363E-02
       1.7296664E-02
       1.5028293E-02
       1.9044731E-02
       2.0761868E-02
       2.4998310E-02
       2.8006233E-02
       2.9081785E-02
       8.2941473E-03
       3.7842297E-03
       2.2857730E-02
       1.0812373E-02
       5.5793219E-03
       1.3297638E-02
       7.6921335E-03
       5.2517557E-03
       1.4498040E-02
       1.2856231E-02
       2.4568672E-02
       2.8705151E-02
       2.8335899E-02
       3.0006382E-02
       2.8677863E-02
       2.9216038E-02
       2.6594070E-02
       1.1620954E-02
       2.5920792E-02
       2.7625799E-02
       1.7066669E-02
       2.3611167E-02
       2.2618747E-02
       1.7581803E-02
       8.5417146E-03
       5.6030210E-03
       8.0611742E-03
       6.4910620E-03
       8.6188987E-03
       1.0117407E-02
       3.9064752E-03
       2.5682367E-02
       1.2052785E-02
       4.8567378E-03
       3.1125155E-03
       4.2111367E-03
       4.1112001E-03
       5.0541415E-03
       1.5699187E-02
       7.0323365E-03
       5.2219054E-03
       1.2700684E-02
       2.3733371E-02
       4.0313468E-03
       9.0663076E-03
       1.2198696E-02
       2.4341178E-02
       1.4002379E-02
       7.4879421E-03
       1.2198613E-02
       6.0768169E-03
       2.1284462E-02
       1.3570461E-02
       7.9016583E-03
       1.9911599E-02
       1.4816036E-02
       9.0644831E-03
       8.5852025E-03
       1.1563213E-02
       1.1866417E-02
       3.6739248E-03
       5.6465520E-03
       4.7843849E-04
       9.4336839E-03
       2.3345314E-03
       6.3266822E-03
       7.2505179E-03
       1.4234472E-02
       1.1298392E-02
       5.2903454E-03
       3.4480480E-03
       3.5226654E-03
       4.7054282E-03
       5.7085937E-03
       5.8536665E-03
       7.7278245E-03
       1.9634653E-02
       2.7093159E-02
       1.5089839E-02
       1.7287958E-02
       1.9753855E-02
       2.1974202E-02
       5.0107863E-03
       7.8482163E-03
       4.7598993E-03
       2.0245879E-03
       1.7491715E-03
       2.7657792E-03
       9.2251342E-03
       8.8382623E-03
       2.0000821E-03
       1.3143003E-02
       3.9201627E-03
       1.1974866E-02
       2.8360426E-03
       6.5000232E-04
       7.9627685E-03
       1.6375923E-02
       1.5148716E-02
       1.7417452E-02
       7.6590195E-03
       1.7073229E-02
       2.2251032E-02
       2.1055527E-02
       2.6192524E-02
       2.4659341E-02
       2.1725129E-02
       2.5436434E-02
       1.1836152E-02
       5.6096253E-03
       2.1504476E-02
       8.3563602E-03
       2.0532052E-02
       5.6774013E-03
       2.8067244E-02
       2.8216348E-02
       2.9057821E-02
       2.9504290E-02
       2.9972365E-02
       2.5634736E-02
       2.4567730E-02
       2.6947239E-02
       2.3824072E-02
       2.4000811E-02
       1.9122358E-02
       2.2616039E-02
       1.5284090E-02
       2.2521524E-02
       2.1339435E-02
       4.9444303E-03
       3.3483338E-03
       2.7390443E-03
       6.7880002E-03
       1.4318530E-02
       3.0929048E-03
       4.4921530E-03
       1.6170208E-02
       1.9314905E-02
       4.7444254E-03
       1.2027828E-02
       4.9599075E-03
       1.0346158E-02
       8.1201622E-03
       9.9530009E-03
       9.6776434E-03
       4.7334714E-03
       2.6155737E-03
       9.8956682E-05
       6.4273702E-03
       1.4894887E-03
       9.1963141E-03
       5.6829844E-03
       1.5499186E-02
       4.1159987E-04
       3.2162560E-03
       8.1435444E-03
       7.3393629E-03
       1.3524962E-02
       1.0441230E-02
       2.8984087E-03
       1.8005168E-02
       1.3616655E-03
       1.1570073E-02
       2.1447391E-02
       1.2197839E-03
       6.5848443E-04
       1.3403403E-02
       1.3607046E-02
       1.4100256E-02
       1.3919305E-02
       7.1970459E-03
       1.6084540E-02
       1.5199781E-02
       1.5337003E-02
       1.7424013E-02
       1.4549671E-02
       9.5012584E-03
       1.3128969E-02
       1.2820909E-02
       4.4274541E-04
       3.2544903E-03
       3.3754701E-03
       4.9387859E-03
       2.7977070E-03
       2.8683982E-03
       1.2683408E-03
       1.2343649E-03
       8.1880997E-04
       1.4618909E-02
       1.6902970E-02
       1.5691615E-02
       1.2551905E-02
       1.6996796E-02
       1.0519615E-02
       4.2760464E-03
       8.6480019E-03
       4.9188287E-03
       3.6146752E-03
       2.4204335E-03
       3.7095321E-03
       4.5712427E-03
       2.7645157E-02
       3.0905564E-02
       2.9286271E-02
       2.9968710E-02
       3.0895037E-02
       2.9623410E-02
       3.0507622E-02
       3.1557844E-02
       3.1200203E-02
       3.2307470E-02
       3.0776515E-02
       3.1824972E-02
       3.2927750E-02
       3.2304866E-02
       3.2062180E-02
       3.2135161E-02
       3.1254880E-02
       2.9949039E-02
       2.9447937E-02
       2.9397826E-02
       2.9310299E-02
       3.0279897E-02
       3.0906998E-02
       3.1009095E-02
       2.7703245E-02
       2.4823433E-02
       2.7907788E-02
       2.6476803E-02
       2.5042833E-02
       2.9784482E-02
       3.1007444E-02
       3.0670560E-02
       3.0232654E-02
       3.0141838E-02
       3.0813453E-02
       3.2256500E-02
       3.1628336E-02
       2.9876321E-02
       3.1494864E-02
       3.2147417E-02
       3.2332295E-02
       3.1624743E-02
       3.0388655E-02
       3.0794406E-02
       3.3712425E-02
       3.1562652E-02
       3.3487766E-02
       3.2966671E-02
       3.2913313E-02
       3.2980948E-02
       3.4058310E-02
       3.3465784E-02
       3.3332198E-02
       3.2895559E-02
       3.3415823E-02
       3.4558780E-02
       3.3935880E-02
       3.4296385E-02
       3.3481696E-02
       3.5384872E-02
       3.2978661E-02
       3.4659034E-02
       3.1954478E-02
       3.4047797E-02
       3.4927282E-02
       3.5728087E-02
       3.5521743E-02
       3.6578054E-02
       3.6028759E-02
       3.5377135E-02
       3.4386740E-02
       3.2715539E-02
       3.3470571E-02
       3.6088506E-02
       3.6311450E-02
       3.6414357E-02
       3.7319769E-02
       3.6939357E-02
       3.5150413E-02
       3.6790673E-02
       3.2074305E-02
       3.3343139E-02
       3.6795904E-02
       3.6783244E-02
       3.6026805E-02
       3.6664700E-02
       3.7104394E-02
       3.1096754E-02
       3.3279468E-02
       3.7789908E-02
       3.2610195E-02
       3.4507786E-02
       3.7370101E-02
       3.7629380E-02
       3.1197086E-02
       3.4013464E-02
       3.4633737E-02
       3.7205572E-02
       3.7624263E-02
       3.7569276E-02
       3.8511726E-02
       3.8147141E-02
       3.1872348E-02
       3.1101846E-02
       3.2239469E-02
       2.9286372E-02
       3.2336391E-02
       3.0248277E-02
       3.0325713E-02
       3.0085570E-02
       3.8266071E-02
       3.9221741E-02
       2.9056905E-02
       3.7997508E-02
       3.8608421E-02
       3.7901454E-02
       3.8789671E-02
       2.8077000E-02
       2.9552313E-02
       2.8740819E-02
       2.7394498E-02
       2.8287374E-02
       2.8482831E-02
       3.8372875E-02
       3.7876542E-02
       3.8830424E-02
       3.7917958E-02
       2.7312743E-02
       2.6432861E-02
       3.7565642E-02
       3.9296104E-02
       3.8515430E-02
       3.6723121E-02
       2.6709598E-02
       3.9018099E-02
       3.7296744E-02
       3.6622673E-02
       2.7824256E-02
       3.8454401E-02
       3.9119922E-02
       3.7649328E-02
       4.0089682E-02
       3.7763927E-02
       3.9711885E-02
       3.9647116E-02
       3.9682327E-02
       3.9994488E-02
       3.9679096E-02
       3.9246533E-02
       3.9158435E-02
       4.0502001E-02
       4.0091543E-02
       4.0652826E-02
       4.0172927E-02
       4.0418562E-02
       2.7110661E-02
       3.6846307E-03
       2.3944008E-03
       1.0639929E-03
       1.7593268E-03
       1.1145114E-03
       1.6040883E-03
       1.4602064E-03
       2.0401752E-03
       2.2868509E-03
       1.9751237E-03
       2.6490122E-03
       2.2721493E-04
       3.5073084E-04
       1.2561110E-03
       1.4066943E-03
       9.0960804E-04
       5.6802991E-04
       1.4790405E-03
       3.9261194E-04
       4.3287187E-04
       9.7231626E-04
       6.4753816E-04
       3.8225534E-04
       5.8500238E-04
       2.2863580E-04
       2.5467276E-02
       1.4453224E-02
       1.3300675E-02
       1.6410313E-02
       1.4878567E-02
       1.5384659E-02
       1.7295824E-02
       2.3018111E-02
       2.0315537E-02
       2.2317227E-02
       2.3622731E-02
       2.0893356E-02
       2.2002225E-02
       1.9369127E-02
       2.2501704E-02
       2.4005602E-02
       2.3358415E-02
       2.5084691E-02
       2.6137163E-02
       2.5205560E-02
       2.3530106E-02
       2.1059856E-02
       2.2295481E-02
       2.1641951E-02
       2.2308818E-02
       2.3837809E-02
       2.2773577E-02
       2.1700122E-02
       2.2771708E-02
       2.2008696E-02
       2.2892135E-02
       1.9787646E-02
       2.2742140E-02
       2.0622011E-02
       2.4245017E-02
       2.1716436E-02
       2.3765953E-02
       2.4962472E-02
       2.1398205E-02
       2.1693072E-02
       2.2975226E-02
       2.4934723E-02
       2.6177759E-02
       2.5336515E-02
       2.4336847E-02
       2.6972522E-02
       2.4994227E-02
       2.5700651E-02
       2.5075223E-02
       2.3995557E-02
       2.6062178E-02
       2.5902091E-02
       2.7622797E-02
       2.5923187E-02
       2.6823813E-02
       2.8726521E-02
       2.7828482E-02
       2.9230157E-02
       6.5228468E-03
       8.4385687E-03
       1.0145631E-02
       1.1100366E-02
       1.0850019E-02
       1.0647574E-02
       3.4594311E-03
       9.0659470E-04
       3.9537658E-03
       1.7169503E-03
       1.1974193E-02
       1.7595431E-02
       1.1171952E-02
       9.7028110E-03
       1.4923387E-02
       1.5517845E-02
       1.3260301E-02
       1.0622213E-02
       1.1084253E-02
       1.2536857E-02
       1.3062947E-02
       1.5204525E-02
       9.0058932E-03
       7.0943569E-03
       9.1820151E-03
       8.9760399E-03
       6.8101696E-03
       7.7438560E-03
       9.0905608E-03
       4.2522666E-03
       4.1017685E-03
       5.9893879E-03
       4.1843795E-03
       5.3401145E-03
       5.4441880E-03
       1.0281569E-02
       4.2303260E-03
       5.9930287E-03
       3.3729161E-03
       1.6017537E-03
       1.6193784E-03
       9.7916877E-04
       1.8277295E-02
       1.9036790E-02
       1.8773764E-02
       5.0744090E-03
       5.9973903E-03
       6.8424419E-03
       4.2606984E-03
       4.4043715E-03
       2.8430047E-03
       2.7941421E-02
       2.7154076E-02
       2.8986975E-02
       2.7144097E-02
       2.9160255E-02
       2.5397017E-02
       3.0370067E-02
       2.4927699E-02
       3.1486363E-02
       3.0160681E-02
       2.7099463E-02
       2.8410447E-02
       1.7140804E-02
       3.1036642E-02
       2.1968765E-02
       2.2290875E-02
       1.0825715E-02
       2.0924799E-02
       3.2171547E-02
       1.4418551E-02
       1.0734258E-02
       1.4522201E-02
       1.4105226E-02
       3.0665998E-02
       3.2133638E-02
       2.4202715E-02
       2.2753442E-02
       3.1394463E-02
       3.3710484E-02
       3.3924359E-02
       3.1335783E-02
       3.3887548E-02
       3.5826381E-02
       3.5230701E-02
       3.8216332E-02
       3.7034255E-02
       3.8926150E-02
       3.8381943E-02
       3.8933621E-02
       3.8294896E-02
       3.8956010E-02
       4.0013969E-02
       3.9485022E-02
       3.9517973E-02
       3.9585744E-02
       3.6722445E-02
       3.7374036E-02
       3.5831270E-02
       3.7123472E-02
       3.9544538E-02
       3.9718421E-02
       3.9009209E-02
       3.8785995E-02
       3.9120653E-02
       4.0331797E-02
       4.1386975E-02
       2.1316795E-03
       4.4245971E-04
       7.8551283E-04
       3.2972338E-04
       1.7286655E-02
       1.8509943E-02
       1.6367855E-02
       1.8067162E-02
       1.7925198E-02
       2.5099132E-02
       2.7770643E-02
       2.7224897E-02
       1.9483010E-02
       1.8183575E-02
       1.8728368E-02
       2.4557173E-02
       2.3697591E-02
       2.1412068E-02
       2.7433332E-02
       3.0319710E-02
       1.4215809E-03
       7.3990966E-04
       2.2413645E-03
       1.0526217E-03
       1.3851177E-03
       3.8385608E-03
       3.4359640E-04
       1.2681387E-03
       1.3316015E-04
       2.6327486E-04
       3.9050826E-04
       5.8699840E-04
       2.1982383E-04
       5.9456710E-04
       1.5940606E-04
       5.8913415E-03
       7.5524185E-03
       1.8450550E-03
       2.5741056E-03
       1.5549687E-02
       1.6582777E-02
       1.8565870E-02
       1.8853936E-02
       1.9295347E-02
       2.0524954E-02
       2.0893151E-02
       9.4273003E-03
       8.8448756E-03
       1.2827834E-02
       1.3911878E-02
       4.3600117E-03
       1.0874236E-02
       1.2093208E-02
       2.5497581E-03
       1.1152400E-02
       1.3840172E-02
       1.5532825E-02
       1.5509387E-02
       1.6714675E-02
       1.5170390E-02
       6.8298481E-04
       1.7122354E-02
       1.3197048E-02
       1.6714915E-02
       1.2101697E-02
       1.2396816E-02
       1.1694771E-02
       5.1521041E-03
       8.5687896E-03
       6.5066910E-03
       7.7495389E-03
       6.2293062E-03
       2.7252808E-03
       1.1416006E-03
       1.6235976E-02
       1.5324228E-02
       1.7709159E-02
       7.0105927E-03
       7.2181423E-03
       6.0947437E-03
       9.1803010E-03
       7.9222899E-03
       7.0219545E-03
       1.1321922E-02
       3.3611475E-03
       9.7606810E-04
       7.0023902E-04
       2.2276521E-02
       1.7543667E-02
       1.1576529E-02
       1.3852876E-02
       1.1190265E-02
       1.6122021E-02
       1.8668432E-02
       1.7673758E-02
       3.2992340E-02
       3.5116563E-02
       3.5229256E-02
       3.5423397E-02
       3.5424097E-02
       3.5916577E-02
       3.4631527E-02
       3.4416914E-02
       3.5117853E-02
       3.4391607E-02
       3.8233810E-02
       3.8167772E-02
       4.3068829E-02
       3.7967463E-02
       3.6505097E-02
       4.0672856E-02
       3.9940409E-02
       4.0731936E-02
       3.9955172E-02
       3.8634129E-02
       4.1762786E-02
       3.3778142E-02
       4.1386272E-02
       4.2470422E-02
       3.6733189E-02
       3.2803685E-02
       4.2481086E-02
       4.2143707E-02
       4.0342731E-02
       4.0643561E-02
       4.0858792E-02
       3.4004777E-02
       4.1703415E-02
       3.6893621E-02
       4.1268988E-02
       3.5597766E-02
       4.2119326E-02
       4.1090451E-02
       4.1698968E-02
       4.1374276E-02
       4.1859822E-02
       4.0459298E-02
       4.2408227E-02
       3.8567151E-02
       4.2126930E-02
       3.8138691E-02
       3.7349740E-02
       4.1911003E-02
       4.2438068E-02
       3.8766690E-02
       3.7299766E-02
       1.8452133E-02
       4.2853698E-02
       1.6162240E-02
       4.3226475E-02
       3.9028187E-02
       4.3017330E-02
       3.5404615E-02
       3.4294764E-02
       4.3084105E-02
       4.3466444E-02
       4.3452155E-02
       4.4010326E-02
       4.2803742E-02
       4.2698361E-02
       3.8154866E-02
       3.6307138E-02
       3.7780359E-02
       3.5812105E-02
       3.5202098E-02
       4.1132095E-02
       3.6669284E-02
       3.7757245E-02
       3.4801879E-02
       3.5429433E-02
       3.6873630E-02
       4.4606654E-02
       3.9283742E-02
       4.1929216E-02
       3.6378185E-02
       4.1668714E-02
       3.6854367E-02
       3.6234195E-02
       3.5205275E-02
       3.4351336E-02
       3.5717834E-02
       3.6198484E-02
       3.6351200E-02
       3.5973100E-02
       3.5468739E-02
       3.5904792E-02
       3.4967720E-02
       3.5837923E-02
       3.4240380E-02
       3.3924355E-02
       3.4583722E-02
       3.3874087E-02
       3.4592308E-02
       3.5236490E-02
       3.4756090E-02
       3.3986681E-02
       3.3252778E-02
       3.3059090E-02
       3.2920658E-02
       3.1859196E-02
       3.3571472E-02
       3.3903758E-02
       3.7374068E-02
       3.9498393E-02
       3.8593193E-02
       3.8900925E-02
       4.0081040E-02
       4.1041188E-02
       4.0782036E-02
       4.1037563E-02
       4.0805498E-02
       4.0354020E-02
       4.1175147E-02
       4.0672987E-02
       4.1715400E-02
       4.0677808E-02
       4.1616410E-02
       4.1299957E-02
       4.2025728E-02
       4.1014142E-02
       4.1065601E-02
       4.1035504E-02
       4.0147130E-02
       4.1451212E-02
       4.0643730E-02
       4.0376300E-02
       4.1271823E-02
       4.1338485E-02