# vtk DataFile Version 3.0
# Solution du M1 TR
ASCII
DATASET UNSTRUCTURED_GRID
POINTS   3280  float
0.0000000E+00  0.0000000E+00  0.2203442E-01
0.2000000E+01  0.0000000E+00  0.1960232E+01
0.2000000E+01  0.1000000E+01  0.1960385E+01
0.0000000E+00  0.1000000E+01  0.2209979E-01
0.1000000E+01  0.0000000E+00  0.9918341E+00
0.1000000E+01  0.1000000E+01  0.9918809E+00
0.1500000E+01  0.5000000E+00  0.1497101E+01
0.1500000E+01  0.0000000E+00  0.1473933E+01
0.1723284E+01  0.3570951E+00  0.1703027E+01
0.1500000E+01  0.2500000E+00  0.1495471E+01
0.1515103E+01  0.2763186E+00  0.1510198E+01
0.1594866E+01  0.2826386E+00  0.1585361E+01
0.1562500E+01  0.1875000E+00  0.1553589E+01
0.1534357E+01  0.1819434E+00  0.1526301E+01
0.1561083E+01  0.3343258E+00  0.1553889E+01
0.1750000E+01  0.0000000E+00  0.1715462E+01
0.1503267E+01  0.1622339E+00  0.1495717E+01
0.1514910E+01  0.2261192E+00  0.1509270E+01
0.1610795E+01  0.1290247E+00  0.1593945E+01
0.1539062E+01  0.1536458E+00  0.1528825E+01
0.1510772E+01  0.1982718E+00  0.1504430E+01
0.1541862E+01  0.2179813E+00  0.1534730E+01
0.1475030E+01  0.2178147E+00  0.1471137E+01
0.1539206E+01  0.2578835E+00  0.1532743E+01
0.1521085E+01  0.2465697E+00  0.1515375E+01
0.1496499E+01  0.2146241E+00  0.1491415E+01
0.1481433E+01  0.1870688E+00  0.1475879E+01
0.1586261E+01  0.1960616E+00  0.1575821E+01
0.1460896E+01  0.2899333E+00  0.1458762E+01
0.1542195E+01  0.2867649E+00  0.1535808E+01
0.1486080E+01  0.2754813E+00  0.1482569E+01
0.1536278E+01  0.3247610E+00  0.1530562E+01
0.1510131E+01  0.3295675E+00  0.1505886E+01
0.1455545E+01  0.2514402E+00  0.1453214E+01
0.1610995E+01  0.1909452E+00  0.1599140E+01
0.1564462E+01  0.2395252E+00  0.1556499E+01
0.1571524E+01  0.3026484E+00  0.1563467E+01
0.1613657E+01  0.2555806E+00  0.1602856E+01
0.1633998E+01  0.2714643E+00  0.1621616E+01
0.1534973E+01  0.3650914E+00  0.1528950E+01
0.1583157E+01  0.2286349E+00  0.1573746E+01
0.1586501E+01  0.1581416E+00  0.1574355E+01
0.1651985E+01  0.2274641E+00  0.1638183E+01
0.1619170E+01  0.2936434E+00  0.1607866E+01
0.1678889E+01  0.2641389E+00  0.1662727E+01
0.1642286E+01  0.2930521E+00  0.1629101E+01
0.1526415E+01  0.3446283E+00  0.1521094E+01
0.1662420E+01  0.3044259E+00  0.1647590E+01
0.1636786E+01  0.2469276E+00  0.1624367E+01
0.1588953E+01  0.3366240E+00  0.1579950E+01
0.1616427E+01  0.3314099E+00  0.1605467E+01
0.1598305E+01  0.3102698E+00  0.1588526E+01
0.1655410E+01  0.2614708E+00  0.1641224E+01
0.1487553E+01  0.3072167E+00  0.1484249E+01
0.1520126E+01  0.3036443E+00  0.1515141E+01
0.1477894E+01  0.2544664E+00  0.1474662E+01
0.1567847E+01  0.2133479E+00  0.1559021E+01
0.1663947E+01  0.3299725E+00  0.1649420E+01
0.1567022E+01  0.2696000E+00  0.1559215E+01
0.1678598E+01  0.3509559E+00  0.1662508E+01
0.1611933E+01  0.3827205E+00  0.1600681E+01
0.1640491E+01  0.3197373E+00  0.1627704E+01
0.1588015E+01  0.2526666E+00  0.1578783E+01
0.1708471E+01  0.3144917E+00  0.1689631E+01
0.1606944E+01  0.3564315E+00  0.1596395E+01
0.1604614E+01  0.2314093E+00  0.1593968E+01
0.1643491E+01  0.3631133E+00  0.1630233E+01
0.2000000E+01  0.5000000E+00  0.1960515E+01
0.1494727E+01  0.3621796E+00  0.1491078E+01
0.1701807E+01  0.3477237E+00  0.1683434E+01
0.1572156E+01  0.3701847E+00  0.1564004E+01
0.1688392E+01  0.3285111E+00  0.1671644E+01
0.1695932E+01  0.3904821E+00  0.1677993E+01
0.1636337E+01  0.3418163E+00  0.1623934E+01
0.1505941E+01  0.9448485E-01  0.1486624E+01
0.1423727E+01  0.1910920E+00  0.1420718E+01
0.1481447E+01  0.3359634E+00  0.1478661E+01
0.1441613E+01  0.3726133E+00  0.1440869E+01
0.1466699E+01  0.3599060E+00  0.1464645E+01
0.1476682E+01  0.4107296E+00  0.1474274E+01
0.1434448E+01  0.3273535E+00  0.1433971E+01
0.1464523E+01  0.3867258E+00  0.1462771E+01
0.1456903E+01  0.3373583E+00  0.1455419E+01
0.1454188E+01  0.3132491E+00  0.1452548E+01
0.1424069E+01  0.2919612E+00  0.1423516E+01
0.1490969E+01  0.3884111E+00  0.1487729E+01
0.1428051E+01  0.4202828E+00  0.1428296E+01
0.1513790E+01  0.3782958E+00  0.1509102E+01
0.1547789E+01  0.4092466E+00  0.1541230E+01
0.1535154E+01  0.3889763E+00  0.1529224E+01
0.1512699E+01  0.4170463E+00  0.1508417E+01
0.1441554E+01  0.3983607E+00  0.1441030E+01
0.1395941E+01  0.3853832E+00  0.1397638E+01
0.1420578E+01  0.3854393E+00  0.1421004E+01
0.1408336E+01  0.3518173E+00  0.1409184E+01
0.1549967E+01  0.3074339E+00  0.1543379E+01
0.1651639E+01  0.4114272E+00  0.1637579E+01
0.1668616E+01  0.3788978E+00  0.1653268E+01
0.1674624E+01  0.4027285E+00  0.1658847E+01
0.1706988E+01  0.4343785E+00  0.1687997E+01
0.1673984E+01  0.4357547E+00  0.1657876E+01
0.1695270E+01  0.4139894E+00  0.1677616E+01
0.1737273E+01  0.4034108E+00  0.1715179E+01
0.1645630E+01  0.3875965E+00  0.1632212E+01
0.1625874E+01  0.4052508E+00  0.1613800E+01
0.1627808E+01  0.4540126E+00  0.1616123E+01
0.1587158E+01  0.4136289E+00  0.1577999E+01
0.1633718E+01  0.4293591E+00  0.1621459E+01
0.1651607E+01  0.4466828E+00  0.1637746E+01
0.1605650E+01  0.4356658E+00  0.1595359E+01
0.1682168E+01  0.4808869E+00  0.1664731E+01
0.1671711E+01  0.4594749E+00  0.1655968E+01
0.1698428E+01  0.4596870E+00  0.1680268E+01
0.1646221E+01  0.4851828E+00  0.1632455E+01
0.1607747E+01  0.4151289E+00  0.1597104E+01
0.1584205E+01  0.4841185E+00  0.1575319E+01
0.1747573E+01  0.4622079E+00  0.1724297E+01
0.1568396E+01  0.4481495E+00  0.1560543E+01
0.1601760E+01  0.4629165E+00  0.1591971E+01
0.1723356E+01  0.4540167E+00  0.1702677E+01
0.1732897E+01  0.4294241E+00  0.1710964E+01
0.1722218E+01  0.4972746E+00  0.1700923E+01
0.1715121E+01  0.4754441E+00  0.1694827E+01
0.1584567E+01  0.4345797E+00  0.1575771E+01
0.1563465E+01  0.4258523E+00  0.1556147E+01
0.1534166E+01  0.4440258E+00  0.1528566E+01
0.1615090E+01  0.4918227E+00  0.1604034E+01
0.1717469E+01  0.4134541E+00  0.1697522E+01
0.1718488E+01  0.3909170E+00  0.1698171E+01
0.1741353E+01  0.3769080E+00  0.1718965E+01
0.1781199E+01  0.4241746E+00  0.1754562E+01
0.2000000E+01  0.2500000E+00  0.1960360E+01
0.1756308E+01  0.4199875E+00  0.1732346E+01
0.1762447E+01  0.3937207E+00  0.1737945E+01
0.1765097E+01  0.4438197E+00  0.1739955E+01
0.1807974E+01  0.4625425E+00  0.1777490E+01
0.1789176E+01  0.4471344E+00  0.1761112E+01
0.1514158E+01  0.1287364E+00  0.1502337E+01
0.1777674E+01  0.4803377E+00  0.1751187E+01
0.1811145E+01  0.4395021E+00  0.1781291E+01
0.1850404E+01  0.4566449E+00  0.1816636E+01
0.1748483E+01  0.3522599E+00  0.1725524E+01
0.1731235E+01  0.3304535E+00  0.1710188E+01
0.1777870E+01  0.3654441E+00  0.1752241E+01
0.1748149E+01  0.2821176E+00  0.1725291E+01
0.1732875E+01  0.3039003E+00  0.1711617E+01
0.1708314E+01  0.2807181E+00  0.1689733E+01
0.1767650E+01  0.3193756E+00  0.1743063E+01
0.1372661E+01  0.1704076E+00  0.1370216E+01
0.1411157E+01  0.2494459E+00  0.1410766E+01
0.1448000E+01  0.2246098E+00  0.1445408E+01
0.1360382E+01  0.2278583E+00  0.1361479E+01
0.1433680E+01  0.2431125E+00  0.1432256E+01
0.1388814E+01  0.2314916E+00  0.1388850E+01
0.1314549E+01  0.2124991E+00  0.1317100E+01
0.1404157E+01  0.2007613E+00  0.1402713E+01
0.1415035E+01  0.1072182E+00  0.1404513E+01
0.1520299E+01  0.1091515E+00  0.1504758E+01
0.1459010E+01  0.1690672E+00  0.1453484E+01
0.1436337E+01  0.2690050E+00  0.1435074E+01
0.1443480E+01  0.1263360E+00  0.1434895E+01
0.1625000E+01  0.0000000E+00  0.1593959E+01
0.1414954E+01  0.2197329E+00  0.1413567E+01
0.1335299E+01  0.2266424E+00  0.1337309E+01
0.1396801E+01  0.1612344E+00  0.1392668E+01
0.1792033E+01  0.3934232E+00  0.1764783E+01
0.1541310E+01  0.1264947E+00  0.1528156E+01
0.1483859E+01  0.1256971E+00  0.1472437E+01
0.1500341E+01  0.1139400E+00  0.1486661E+01
0.1498380E+01  0.1421255E+00  0.1488362E+01
0.1478242E+01  0.1468909E+00  0.1470085E+01
0.1453147E+01  0.1972183E+00  0.1449385E+01
0.1348833E+01  0.2067866E+00  0.1349802E+01
0.1368157E+01  0.2800764E+00  0.1369977E+01
0.1250000E+01  0.0000000E+00  0.1233509E+01
0.1496272E+01  0.2780308E-01  0.1471250E+01
0.1430228E+01  0.1622338E+00  0.1424816E+01
0.1544491E+01  0.1012427E+00  0.1526090E+01
0.1505524E+01  0.5428530E-01  0.1482335E+01
0.1576405E+01  0.1180891E+00  0.1559879E+01
0.1526885E+01  0.8834234E-01  0.1505629E+01
0.1558557E+01  0.6358195E-01  0.1534126E+01
0.1372206E+01  0.9428859E-01  0.1359824E+01
0.1414069E+01  0.8636887E-01  0.1399468E+01
0.1351230E+01  0.1581055E+00  0.1348823E+01
0.1371634E+01  0.2528708E+00  0.1372940E+01
0.1392978E+01  0.2694234E+00  0.1393606E+01
0.1321668E+01  0.2603105E+00  0.1325155E+01
0.1392566E+01  0.3027057E+00  0.1393642E+01
0.1345601E+01  0.2495441E+00  0.1347860E+01
0.1349996E+01  0.1827855E+00  0.1349558E+01
0.1475238E+01  0.9618066E-01  0.1458619E+01
0.1487372E+01  0.4556180E+00  0.1484770E+01
0.1432024E+01  0.3509343E+00  0.1431647E+01
0.1619231E+01  0.5383449E+00  0.1607286E+01
0.1532505E+01  0.4233173E+00  0.1527013E+01
0.1547332E+01  0.4788657E+00  0.1541126E+01
0.1627786E+01  0.4750493E+00  0.1615647E+01
0.1750658E+01  0.4911384E+00  0.1726870E+01
0.1783313E+01  0.5336292E+00  0.1755161E+01
0.1744147E+01  0.5299352E+00  0.1719962E+01
0.1772978E+01  0.5077787E+00  0.1746199E+01
0.1739682E+01  0.5092411E+00  0.1716254E+01
0.1715917E+01  0.5251974E+00  0.1694769E+01
0.1809547E+01  0.4999146E+00  0.1778596E+01
0.1486188E+01  0.5335558E+00  0.1483734E+01
0.1695320E+01  0.5058771E+00  0.1676717E+01
0.1793562E+01  0.5145404E+00  0.1764207E+01
0.1827482E+01  0.5355643E+00  0.1795068E+01
0.1805457E+01  0.5332234E+00  0.1774984E+01
0.1812320E+01  0.5734372E+00  0.1781576E+01
0.1794794E+01  0.5557356E+00  0.1765667E+01
0.1637325E+01  0.5533192E+00  0.1623761E+01
0.1761146E+01  0.5591762E+00  0.1735311E+01
0.1789115E+01  0.5788851E+00  0.1760333E+01
0.1693317E+01  0.6123782E+00  0.1675246E+01
0.1522396E+01  0.5359490E+00  0.1517799E+01
0.1814654E+01  0.6254783E+00  0.1783710E+01
0.1726166E+01  0.5505978E+00  0.1703600E+01
0.1691322E+01  0.5307786E+00  0.1673032E+01
0.1516987E+01  0.5143680E+00  0.1512904E+01
0.1661909E+01  0.5147686E+00  0.1646095E+01
0.1761865E+01  0.6508066E+00  0.1736320E+01
0.1692174E+01  0.5698207E+00  0.1673876E+01
0.1780214E+01  0.6037461E+00  0.1752718E+01
[...]
POINT_DATA    3280
SCALARS hauteur float
LOOKUP_TABLE DEFAULT
       2.2034417E-02
       9.8995518E-05
       2.5217787E-04
       2.2099789E-02
       1.1767505E-02
       1.1814347E-02
       2.7000809E-02
       3.8330505E-03
       1.4094005E-02
       2.5370718E-02
       2.5295508E-02
       2.2286017E-02
       2.2234550E-02
       2.2529028E-02
       2.3924078E-02
       3.4567353E-04
       2.2415438E-02
       2.4557268E-02
       1.5258125E-02
       2.0441773E-02
       2.3773315E-02
       2.3602704E-02
       2.5509065E-02
       2.4219172E-02
       2.4610393E-02
       2.4745701E-02
       2.3976424E-02
       2.1178845E-02
       2.6986139E-02
       2.4354089E-02
       2.6112079E-02
       2.4907466E-02
       2.5857736E-02
       2.6682763E-02
       2.0257448E-02
       2.3221951E-02
       2.3268839E-02
       2.1364622E-02
       2.0188753E-02
       2.4573906E-02
       2.2146476E-02
       1.9478161E-02
       1.9127680E-02
       2.0972180E-02
       1.7304039E-02
       1.9551111E-02
       2.5106163E-02
       1.8307541E-02
       2.0207055E-02
       2.2670582E-02
       2.1260791E-02
       2.2080924E-02
       1.8811743E-02
       2.6348417E-02
       2.5315781E-02
       2.6227766E-02
       2.2426440E-02
       1.8640706E-02
       2.3428520E-02
       1.7369522E-02
       2.0879395E-02
       1.9913808E-02
       2.2422873E-02
       1.5215469E-02
       2.1483341E-02
       2.1338854E-02
       1.9502659E-02
       3.8194849E-04
       2.6146044E-02
       1.5550040E-02
       2.3187178E-02
       1.6907537E-02
       1.5866310E-02
       2.0214361E-02
       1.0702131E-02
       2.5369825E-02
       2.6743852E-02
       2.7992690E-02
       2.7183163E-02
       2.7027185E-02
       2.8117191E-02
       2.7440934E-02
       2.7557010E-02
       2.7346487E-02
       2.7833709E-02
       2.6480254E-02
       2.8711559E-02
       2.5486936E-02
       2.4293823E-02
       2.4670996E-02
       2.5871046E-02
       2.8211048E-02
       2.9523472E-02
       2.8743636E-02
       2.8921032E-02
       2.4309072E-02
       1.8862684E-02
       1.7913998E-02
       1.7603289E-02
       1.5034839E-02
       1.7259609E-02
       1.6138487E-02
       1.2536020E-02
       1.9384995E-02
       2.0335442E-02
       2.0763056E-02
       2.2478356E-02
       2.0306635E-02
       1.9060704E-02
       2.1714841E-02
       1.6094038E-02
       1.7579723E-02
       1.5696375E-02
       1.9048212E-02
       2.1404299E-02
       2.2692817E-02
       1.1559142E-02
       2.3410683E-02
       2.2138859E-02
       1.3673331E-02
       1.2609348E-02
       1.3034317E-02
       1.3894538E-02
       2.2789144E-02
       2.3847477E-02
       2.4981687E-02
       2.1137962E-02
       1.4288755E-02
       1.3938142E-02
       1.2322957E-02
       8.8680360E-03
       2.2643650E-04
       1.1046983E-02
       1.0629962E-02
       1.0042855E-02
       5.5551851E-03
       7.6011760E-03
       1.8361160E-02
       8.9483578E-03
       6.2483282E-03
       3.1171736E-03
       1.1894438E-02
       1.3462705E-02
       9.8102791E-03
       1.1988662E-02
       1.3283961E-02
       1.5472163E-02
       1.0648103E-02
       2.4916966E-02
       2.7738833E-02
       2.6271593E-02
       2.8213811E-02
       2.7154189E-02
       2.7720204E-02
       2.8755134E-02
       2.6545642E-02
       1.7684305E-02
       1.4762942E-02
       2.3557142E-02
       2.7368831E-02
       2.0188854E-02
       1.3512061E-03
       2.6818098E-02
       2.8627123E-02
       2.3709886E-02
       8.4721426E-03
       1.7569386E-02
       1.8156533E-02
       1.6227600E-02
       1.9849829E-02
       2.1309133E-02
       2.5203755E-02
       2.7855586E-02
       2.9091970E-02
       8.4257465E-03
       4.8044587E-03
       2.3096704E-02
       1.2386455E-02
       6.8216102E-03
       1.4896884E-02
       9.1798101E-03
       6.6367397E-03
       1.4970781E-02
       1.3586971E-02
       2.4527275E-02
       2.8648033E-02
       2.8395295E-02
       2.9833258E-02
       2.8834163E-02
       2.9080656E-02
       2.6471948E-02
       1.2787331E-02
       2.7046340E-02
       2.8167498E-02
       2.0332010E-02
       2.5056722E-02
       2.4637494E-02
       2.0308705E-02
       1.1108642E-02
       7.3959393E-03
       1.0581753E-02
       8.5626875E-03
       1.1249537E-02
       1.3056545E-02
       5.1192563E-03
       2.7170904E-02
       1.5189985E-02
       6.3967689E-03
       4.0137011E-03
       5.5158534E-03
       5.3820034E-03
       6.6493393E-03
       1.9073803E-02
       9.2706935E-03
       6.8811006E-03
       1.5683073E-02
       2.5749077E-02
       5.2286903E-03
       1.1841602E-02
       1.5424683E-02
       2.6156109E-02
       1.7313867E-02
       9.5751426E-03
       1.5433441E-02
       7.9904650E-03
       2.3693809E-02
       1.6942307E-02
       1.0337507E-02
       2.2667884E-02
       1.6785340E-02
       1.1685850E-02
       1.0976142E-02
       1.3691015E-02
       1.3613729E-02
       4.6861606E-03
       6.6320774E-03
       4.3461686E-04
       1.0807561E-02
       2.9110215E-03
       8.0643311E-03
       9.4648388E-03
       1.6790919E-02
       1.4003037E-02
       7.0000417E-03
       4.5624316E-03
       4.6501700E-03
       6.2336333E-03
       7.4966915E-03
       7.6134257E-03
       9.8950771E-03
       2.0494791E-02
       2.6997817E-02
       1.6783798E-02
       1.8606193E-02
       2.0875272E-02
       2.2118359E-02
       6.4220425E-03
       9.4854132E-03
       6.0715309E-03
       2.7123284E-03
       2.3909319E-03
       3.6486814E-03
       1.1009596E-02
       1.0888196E-02
       2.7153951E-03
       1.5462527E-02
       5.2013414E-03
       1.4204328E-02
       3.7952475E-03
       8.3407555E-04
       1.0105104E-02
       1.8372032E-02
       1.7151730E-02
       1.9107505E-02
       8.8955197E-03
       1.7852237E-02
       2.2300945E-02
       2.1492863E-02
       2.6013209E-02
       2.4568974E-02
       2.1700561E-02
       2.5430849E-02
       1.2699166E-02
       6.3979394E-03
       2.1786497E-02
       9.4411762E-03
       2.0842372E-02
       6.8405813E-03
       2.8272683E-02
       2.8522209E-02
       2.9270739E-02
       2.9749505E-02
       3.0026170E-02
       2.6708196E-02
       2.5924139E-02
       2.7803555E-02
       2.5480833E-02
       2.5766101E-02
       2.2040832E-02
       2.4784346E-02
       1.8663745E-02
       2.4383118E-02
       2.3539494E-02
       6.5295618E-03
       4.3751559E-03
       3.5108508E-03
       8.9556666E-03
       1.7476001E-02
       3.9371307E-03
       5.8756088E-03
       1.9382991E-02
       2.2282390E-02
       5.8702438E-03
       1.4536116E-02
       6.2979560E-03
       1.2970857E-02
       1.0087675E-02
       1.1879783E-02
       1.1961973E-02
       6.1037720E-03
       3.2356644E-03
       1.1768001E-04
       8.0007644E-03
       1.8033019E-03
       1.0819890E-02
       7.4081031E-03
       1.8012674E-02
       4.1155767E-04
       4.1394845E-03
       9.8749509E-03
       8.7346079E-03
       1.5730135E-02
       1.3376061E-02
       3.4279189E-03
       2.1087696E-02
       1.6161954E-03
       1.2951464E-02
       2.3984754E-02
       1.4222565E-03
       7.2882023E-04
       1.5279423E-02
       1.5091539E-02
       1.6573476E-02
       1.6678214E-02
       8.2035630E-03
       1.7461563E-02
       1.6385205E-02
       1.6973520E-02
       1.8900184E-02
       1.5824190E-02
       1.0713241E-02
       1.4334599E-02
       1.5469494E-02
       5.0509306E-04
       4.2746001E-03
       4.4210272E-03
       6.4672245E-03
       3.7339402E-03
       3.7865178E-03
       1.7204716E-03
       1.6785457E-03
       1.0790852E-03
       1.7119160E-02
       1.9054554E-02
       1.6432863E-02
       1.3538195E-02
       1.7471561E-02
       1.1274210E-02
       5.2139200E-03
       9.6016254E-03
       5.7940864E-03
       4.5585515E-03
       3.2174289E-03
       4.7636487E-03
       5.8023205E-03
       2.7821265E-02
       3.1049100E-02
       2.9359353E-02
       2.9944297E-02
       3.0850238E-02
       2.9535878E-02
       3.0391644E-02
       3.1349113E-02
       3.1059243E-02
       3.2168497E-02
       3.0565750E-02
       3.1667689E-02
       3.2678725E-02
       3.2101195E-02
       3.1777928E-02
       3.1886093E-02
       3.0994771E-02
       2.9714775E-02
       2.9249051E-02
       2.9105122E-02
       2.9047537E-02
       3.0007540E-02
       3.0592164E-02
       3.0713325E-02
       2.7455326E-02
       2.4626536E-02
       2.7683780E-02
       2.6321818E-02
       2.4874385E-02
       2.9925651E-02
       3.1050841E-02
       3.0707996E-02
       3.0366918E-02
       3.0351281E-02
       3.0918303E-02
       3.2176904E-02
       3.1623479E-02
       3.0188203E-02
       3.1523979E-02
       3.2077378E-02
       3.2237390E-02
       3.1580703E-02
       3.0616032E-02
       3.0968822E-02
       3.3464307E-02
       3.1463287E-02
       3.3268920E-02
       3.2807368E-02
       3.2747833E-02
       3.2771198E-02
       3.3764490E-02
       3.3199770E-02
       3.3041764E-02
       3.2738354E-02
       3.3211239E-02
       3.4234791E-02
       3.3672022E-02
       3.3994054E-02
       3.3170100E-02
       3.4997978E-02
       3.2785376E-02
       3.4323441E-02
       3.1898161E-02
       3.3722088E-02
       3.4573006E-02
       3.5281359E-02
       3.5112063E-02
       3.6096489E-02
       3.5595323E-02
       3.5007274E-02
       3.4052464E-02
       3.2535339E-02
       3.3223812E-02
       3.5631221E-02
       3.5772637E-02
       3.5908640E-02
       3.6715640E-02
       3.6400475E-02
       3.4785954E-02
       3.6349206E-02
       3.2008321E-02
       3.2991350E-02
       3.6225385E-02
       3.6146119E-02
       3.5616109E-02
       3.6208195E-02
       3.6603652E-02
       3.1207276E-02
       3.2970354E-02
       3.7217440E-02
       3.2403729E-02
       3.4015812E-02
       3.6827970E-02
       3.7114370E-02
       3.1269907E-02
       3.3601950E-02
       3.4172725E-02
       3.6733678E-02
       3.7179963E-02
       3.7099690E-02
       3.7995616E-02
       3.7685410E-02
       3.1812489E-02
       3.1211346E-02
       3.2075233E-02
       2.9768278E-02
       3.2170447E-02
       3.0515421E-02
       3.0575890E-02
       3.0391423E-02
       3.7713795E-02
       3.8773837E-02
       2.9529586E-02
       3.7493903E-02
       3.7996993E-02
       3.7520108E-02
       3.8312805E-02
       2.8773612E-02
       2.9956181E-02
       2.9328246E-02
       2.8375981E-02
       2.9024336E-02
       2.9203065E-02
       3.7779569E-02
       3.7259902E-02
       3.8267841E-02
       3.7497247E-02
       2.8220356E-02
       2.7606997E-02
       3.6910196E-02
       3.8799476E-02
       3.8099192E-02
       3.6350050E-02
       2.7895908E-02
       3.8679844E-02
       3.6891044E-02
       3.6225009E-02
       2.8710844E-02
       3.8092011E-02
       3.8730962E-02
       3.7357053E-02
       3.9689340E-02
       3.7428839E-02
       3.9349242E-02
       3.9230738E-02
       3.9227098E-02
       3.9469668E-02
       3.9169671E-02
       3.8701605E-02
       3.8552948E-02
       4.0057546E-02
       3.9643786E-02
       4.0276111E-02
       3.9684637E-02
       3.9930552E-02
       2.7846394E-02
       4.8027905E-03
       3.0537299E-03
       1.2563244E-03
       2.1918360E-03
       1.3467055E-03
       1.9676845E-03
       1.8012496E-03
       2.6123364E-03
       2.9696851E-03
       2.5405140E-03
       3.4676470E-03
       2.0726479E-04
       3.4465434E-04
       1.5536892E-03
       1.7731856E-03
       1.1078864E-03
       6.3031510E-04
       1.8702363E-03
       4.2871023E-04
       4.4349395E-04
       1.1990823E-03
       7.5499260E-04
       4.3802001E-04
       6.9677578E-04
       2.1466525E-04
       2.6862907E-02
       1.7790600E-02
       1.6469867E-02
       1.9608246E-02
       1.7843210E-02
       1.8505067E-02
       2.0121478E-02
       2.5181787E-02
       2.3101973E-02
       2.4361902E-02
       2.5562966E-02
       2.3422621E-02
       2.4379988E-02
       2.2043676E-02
       2.4642017E-02
       2.5705321E-02
       2.4874625E-02
       2.6655846E-02
       2.7497752E-02
       2.6521640E-02
       2.5182912E-02
       2.3028009E-02
       2.4128494E-02
       2.3079134E-02
       2.3875449E-02
       2.4975160E-02
       2.4077081E-02
       2.2868140E-02
       2.3935183E-02
       2.3290263E-02
       2.3798256E-02
       2.1222376E-02
       2.3770228E-02
       2.1615676E-02
       2.5154412E-02
       2.2742124E-02
       2.4801087E-02
       2.5912764E-02
       2.2190264E-02
       2.2579537E-02
       2.3754201E-02
       2.5990133E-02
       2.6896750E-02
       2.6177286E-02
       2.5125909E-02
       2.7683215E-02
       2.5807651E-02
       2.6334032E-02
       2.5801286E-02
       2.4712075E-02
       2.6860648E-02
       2.6786069E-02
       2.8335044E-02
       2.6939124E-02
       2.7616076E-02
       2.9142948E-02
       2.8411207E-02
       2.9648053E-02
       8.6043973E-03
       1.1056180E-02
       1.3129837E-02
       1.4233982E-02
       1.3697879E-02
       1.2232481E-02
       4.3632484E-03
       1.0965310E-03
       4.7860519E-03
       2.0876087E-03
       1.4783561E-02
       1.9462232E-02
       1.2377203E-02
       1.0848601E-02
       1.7456290E-02
       1.7964669E-02
       1.5921990E-02
       1.3388979E-02
       1.3844252E-02
       1.5242836E-02
       1.5590186E-02
       1.7474545E-02
       1.1544780E-02
       9.4780564E-03
       1.1787175E-02
       1.1640270E-02
       9.0951657E-03
       1.0248409E-02
       1.1740258E-02
       5.8387629E-03
       5.7546645E-03
       8.1219781E-03
       5.6248932E-03
       7.2221051E-03
       7.2687127E-03
       1.2859148E-02
       5.5792544E-03
       7.7488658E-03
       4.4199766E-03
       2.1630575E-03
       2.1939435E-03
       1.2987229E-03
       2.0274993E-02
       1.9285387E-02
       1.8908481E-02
       6.0540401E-03
       7.0734098E-03
       7.7849998E-03
       5.2603928E-03
       5.4588270E-03
       3.7262300E-03
       2.7752380E-02
       2.6903060E-02
       2.8688595E-02
       2.6878922E-02
       2.8859368E-02
       2.5152476E-02
       3.0051551E-02
       2.4708078E-02
       3.1159947E-02
       2.9849755E-02
       2.6833097E-02
       2.8111123E-02
       1.6973498E-02
       3.0704641E-02
       2.1834665E-02
       2.2120114E-02
       1.0333516E-02
       2.0737105E-02
       3.1847153E-02
       1.4174943E-02
       1.1200488E-02
       1.4427490E-02
       1.4131425E-02
       3.0343841E-02
       3.1797955E-02
       2.4095472E-02
       2.2730489E-02
       3.1449299E-02
       3.3453406E-02
       3.3619945E-02
       3.1400444E-02
       3.3534334E-02
       3.5214921E-02
       3.4774836E-02
       3.7562899E-02
       3.6402702E-02
       3.8399976E-02
       3.8066706E-02
       3.8696400E-02
       3.8024541E-02
       3.8662024E-02
       3.9750470E-02
       3.9221499E-02
       3.9203133E-02
       3.9396959E-02
       3.6551811E-02
       3.7129880E-02
       3.5524526E-02
       3.6772323E-02
       3.8980496E-02
       3.9151034E-02
       3.8420311E-02
       3.8161210E-02
       3.8505855E-02
       3.9986700E-02
       4.1028659E-02
       2.6739762E-03
       4.4755783E-04
       8.9850350E-04
       2.9845709E-04
       2.0490667E-02
       2.1604389E-02
       1.8985005E-02
       2.0328380E-02
       2.0914704E-02
       2.6747874E-02
       2.8668492E-02
       2.8270963E-02
       2.1849911E-02
       2.0584981E-02
       1.9857642E-02
       2.5836446E-02
       2.4978718E-02
       2.2033021E-02
       2.8308692E-02
       3.0546936E-02
       1.7306796E-03
       8.6807587E-04
       2.7165392E-03
       1.1980166E-03
       1.6386767E-03
       4.5561814E-03
       3.7524425E-04
       1.5203979E-03
       1.4953778E-04
       3.0606812E-04
       3.8962353E-04
       5.9986351E-04
       2.6710519E-04
       7.1367095E-04
       1.7726759E-04
       7.0094936E-03
       8.7404428E-03
       2.2533020E-03
       3.2526460E-03
       1.7699267E-02
       1.8344421E-02
       2.0147530E-02
       2.0178475E-02
       2.1088622E-02
       2.2049945E-02
       2.2614008E-02
       1.0605944E-02
       9.9364571E-03
       1.4107625E-02
       1.5129879E-02
       5.0626520E-03
       1.2184822E-02
       1.3347690E-02
       3.0159715E-03
       1.2357363E-02
       1.5041002E-02
       1.6670468E-02
       1.6617157E-02
       1.7854888E-02
       1.6329037E-02
       7.5253067E-04
       1.8183430E-02
       1.4466357E-02
       1.7803169E-02
       1.3423329E-02
       1.3652988E-02
       1.2992440E-02
       6.2256371E-03
       9.9407041E-03
       7.7560413E-03
       9.0202143E-03
       7.5131507E-03
       3.3170884E-03
       1.3238991E-03
       1.7228804E-02
       1.6402744E-02
       1.8683271E-02
       9.2913599E-03
       9.4535053E-03
       8.0049954E-03
       1.1710096E-02
       1.0216070E-02
       9.0732345E-03
       1.3905895E-02
       4.3790889E-03
       1.3062557E-03
       8.8981730E-04
       2.2164788E-02
       1.7526540E-02
       1.1863501E-02
       1.4009759E-02
       1.1325564E-02
       1.6278734E-02
       1.8705373E-02
       1.7587088E-02
       3.2662379E-02
       3.4571274E-02
       3.4635583E-02
       3.4892614E-02
       3.4823388E-02
       3.5277946E-02
       3.4213943E-02
       3.4068742E-02
       3.4710844E-02
       3.4068922E-02
       3.7606544E-02
       3.7949451E-02
       4.3139872E-02
       3.8099374E-02
       3.6293942E-02
       4.0616476E-02
       3.9813395E-02
       4.0623969E-02
       3.9873911E-02
       3.8486095E-02
       4.1761828E-02
       3.3617715E-02
       4.1302173E-02
       4.2502542E-02
       3.6600840E-02
       3.2465328E-02
       4.2447787E-02
       4.2043270E-02
       4.0131932E-02
       4.0372713E-02
       4.0660392E-02
       3.3991230E-02
       4.1469072E-02
       3.6615138E-02
       4.1027848E-02
       3.5404672E-02
       4.2115941E-02
       4.0781950E-02
       4.1572234E-02
       4.1193740E-02
       4.1685390E-02
       4.0302017E-02
       4.2239710E-02
       3.8464811E-02
       4.1938692E-02
       3.8065537E-02
       3.7151829E-02
       4.1650228E-02
       4.2325779E-02
       3.8577245E-02
       3.7205161E-02
       1.7970035E-02
       4.2845393E-02
       1.5533058E-02
       4.3246232E-02
       3.8969864E-02
       4.2946487E-02
       3.5178558E-02
       3.4080827E-02
       4.3042514E-02
       4.3442539E-02
       4.3442920E-02
       4.4078967E-02
       4.2755761E-02
       4.2598651E-02
       3.8132029E-02
       3.6051738E-02
       3.7659707E-02
       3.5653868E-02
       3.5067315E-02
       4.0988916E-02
       3.6644439E-02
       3.7594858E-02
       3.4628642E-02
       3.5086970E-02
       3.6809425E-02
       4.4749682E-02
       3.9164342E-02
       4.1863841E-02
       3.6051500E-02
       4.1629218E-02
       3.6542122E-02
       3.5942626E-02
       3.4921729E-02
       3.4039778E-02
       3.5391160E-02
       3.5822222E-02
       3.6002633E-02
       3.5614570E-02
       3.5101410E-02
       3.5522994E-02
       3.4615207E-02
       3.5451736E-02
       3.3901037E-02
       3.3573259E-02
       3.4225786E-02
       3.3527544E-02
       3.4234059E-02
       3.4868747E-02
       3.4401966E-02
       3.3645785E-02
       3.2912422E-02
       3.2714359E-02
       3.2576629E-02
       3.1519579E-02
       3.3252933E-02
       3.3554770E-02
       3.6987313E-02
       3.8909327E-02
       3.7945978E-02
       3.8368863E-02
       3.9767051E-02
       4.0650671E-02
       4.0347833E-02
       4.0629294E-02
       4.0365567E-02
       3.9878926E-02
       4.0782805E-02
       4.0223178E-02
       4.1416013E-02
       4.0277782E-02
       4.1289023E-02
       4.0934496E-02
       4.1766750E-02
       4.0629422E-02
       4.0774127E-02
       4.0689647E-02
       3.9823683E-02
       4.1164486E-02
       4.0306671E-02
       4.0174160E-02
       4.0931698E-02
       4.1002304E-02