# vtk DataFile Version 3.0
# Solution du M1 TR
ASCII
DATASET UNSTRUCTURED_GRID
POINTS   3280  float
0.0000000E+00  0.0000000E+00  0.8249725E-02
0.2000000E+01  0.0000000E+00  0.1960138E+01
0.2000000E+01  0.1000000E+01  0.1960150E+01
0.0000000E+00  0.1000000E+01  0.8204165E-02
0.1000000E+01  0.0000000E+00  0.9881300E+00
0.1000000E+01  0.1000000E+01  0.9877573E+00
0.1500000E+01  0.5000000E+00  0.1500116E+01
0.1500000E+01  0.0000000E+00  0.1475064E+01
0.1723284E+01  0.3570951E+00  0.1706469E+01
0.1500000E+01  0.2500000E+00  0.1498281E+01
0.1515103E+01  0.2763186E+00  0.1513014E+01
0.1594866E+01  0.2826386E+00  0.1587301E+01
0.1562500E+01  0.1875000E+00  0.1555198E+01
0.1534357E+01  0.1819434E+00  0.1528218E+01
0.1561083E+01  0.3343258E+00  0.1556519E+01
0.1750000E+01  0.0000000E+00  0.1715514E+01
0.1503267E+01  0.1622339E+00  0.1497951E+01
0.1514910E+01  0.2261192E+00  0.1511667E+01
0.1610795E+01  0.1290247E+00  0.1595630E+01
0.1539062E+01  0.1536458E+00  0.1530577E+01
0.1510772E+01  0.1982718E+00  0.1506691E+01
0.1541862E+01  0.2179813E+00  0.1536719E+01
0.1475030E+01  0.2178147E+00  0.1474158E+01
0.1539206E+01  0.2578835E+00  0.1535003E+01
0.1521085E+01  0.2465697E+00  0.1517782E+01
0.1496499E+01  0.2146241E+00  0.1494012E+01
0.1481433E+01  0.1870688E+00  0.1478491E+01
0.1586261E+01  0.1960616E+00  0.1577179E+01
0.1460896E+01  0.2899333E+00  0.1462403E+01
0.1542195E+01  0.2867649E+00  0.1538294E+01
0.1486080E+01  0.2754813E+00  0.1485776E+01
0.1536278E+01  0.3247610E+00  0.1533474E+01
0.1510131E+01  0.3295675E+00  0.1509194E+01
0.1455545E+01  0.2514402E+00  0.1456730E+01
0.1610995E+01  0.1909452E+00  0.1600416E+01
0.1564462E+01  0.2395252E+00  0.1558345E+01
0.1571524E+01  0.3026484E+00  0.1565757E+01
0.1613657E+01  0.2555806E+00  0.1604558E+01
0.1633998E+01  0.2714643E+00  0.1623407E+01
0.1534973E+01  0.3650914E+00  0.1531939E+01
0.1583157E+01  0.2286349E+00  0.1575271E+01
0.1586501E+01  0.1581416E+00  0.1575775E+01
0.1651985E+01  0.2274641E+00  0.1639790E+01
0.1619170E+01  0.2936434E+00  0.1609786E+01
0.1678889E+01  0.2641389E+00  0.1665059E+01
0.1642286E+01  0.2930521E+00  0.1631086E+01
0.1526415E+01  0.3446283E+00  0.1524190E+01
0.1662420E+01  0.3044259E+00  0.1649862E+01
0.1636786E+01  0.2469276E+00  0.1625978E+01
0.1588953E+01  0.3366240E+00  0.1582335E+01
0.1616427E+01  0.3314099E+00  0.1607636E+01
0.1598305E+01  0.3102698E+00  0.1590636E+01
0.1655410E+01  0.2614708E+00  0.1643178E+01
0.1487553E+01  0.3072167E+00  0.1487658E+01
0.1520126E+01  0.3036443E+00  0.1518112E+01
0.1477894E+01  0.2544664E+00  0.1477915E+01
0.1567847E+01  0.2133479E+00  0.1560596E+01
0.1663947E+01  0.3299725E+00  0.1651743E+01
0.1567022E+01  0.2696000E+00  0.1561302E+01
0.1678598E+01  0.3509559E+00  0.1665095E+01
0.1611933E+01  0.3827205E+00  0.1603155E+01
0.1640491E+01  0.3197373E+00  0.1629824E+01
0.1588015E+01  0.2526666E+00  0.1580527E+01
0.1708471E+01  0.3144917E+00  0.1692647E+01
0.1606944E+01  0.3564315E+00  0.1598800E+01
0.1604614E+01  0.2314093E+00  0.1595426E+01
0.1643491E+01  0.3631133E+00  0.1632649E+01
0.2000000E+01  0.5000000E+00  0.1960325E+01
0.1494727E+01  0.3621796E+00  0.1494579E+01
0.1701807E+01  0.3477237E+00  0.1686447E+01
0.1572156E+01  0.3701847E+00  0.1566673E+01
0.1688392E+01  0.3285111E+00  0.1674247E+01
0.1695932E+01  0.3904821E+00  0.1680972E+01
0.1636337E+01  0.3418163E+00  0.1626210E+01
0.1505941E+01  0.9448485E-01  0.1488885E+01
0.1423727E+01  0.1910920E+00  0.1424094E+01
0.1481447E+01  0.3359634E+00  0.1482351E+01
0.1441613E+01  0.3726133E+00  0.1445073E+01
0.1466699E+01  0.3599060E+00  0.1468563E+01
0.1476682E+01  0.4107296E+00  0.1478000E+01
0.1434448E+01  0.3273535E+00  0.1438220E+01
0.1464523E+01  0.3867258E+00  0.1466735E+01
0.1456903E+01  0.3373583E+00  0.1459456E+01
0.1454188E+01  0.3132491E+00  0.1456425E+01
0.1424069E+01  0.2919612E+00  0.1427578E+01
0.1490969E+01  0.3884111E+00  0.1491340E+01
0.1428051E+01  0.4202828E+00  0.1432583E+01
0.1513790E+01  0.3782958E+00  0.1512360E+01
0.1547789E+01  0.4092466E+00  0.1544086E+01
0.1535154E+01  0.3889763E+00  0.1532217E+01
0.1512699E+01  0.4170463E+00  0.1511705E+01
0.1441554E+01  0.3983607E+00  0.1445251E+01
0.1395941E+01  0.3853832E+00  0.1402312E+01
0.1420578E+01  0.3854393E+00  0.1425456E+01
0.1408336E+01  0.3518173E+00  0.1413743E+01
0.1549967E+01  0.3074339E+00  0.1546010E+01
0.1651639E+01  0.4114272E+00  0.1640171E+01
0.1668616E+01  0.3788978E+00  0.1655834E+01
0.1674624E+01  0.4027285E+00  0.1661553E+01
0.1706988E+01  0.4343785E+00  0.1691426E+01
0.1673984E+01  0.4357547E+00  0.1660786E+01
0.1695270E+01  0.4139894E+00  0.1680622E+01
0.1737273E+01  0.4034108E+00  0.1719284E+01
0.1645630E+01  0.3875965E+00  0.1634735E+01
0.1625874E+01  0.4052508E+00  0.1616265E+01
0.1627808E+01  0.4540126E+00  0.1618497E+01
0.1587158E+01  0.4136289E+00  0.1580506E+01
0.1633718E+01  0.4293591E+00  0.1623875E+01
0.1651607E+01  0.4466828E+00  0.1640325E+01
0.1605650E+01  0.4356658E+00  0.1597766E+01
0.1682168E+01  0.4808869E+00  0.1668287E+01
0.1671711E+01  0.4594749E+00  0.1658960E+01
0.1698428E+01  0.4596870E+00  0.1683715E+01
0.1646221E+01  0.4851828E+00  0.1635211E+01
0.1607747E+01  0.4151289E+00  0.1599537E+01
0.1584205E+01  0.4841185E+00  0.1577805E+01
0.1747573E+01  0.4622079E+00  0.1729015E+01
0.1568396E+01  0.4481495E+00  0.1563121E+01
0.1601760E+01  0.4629165E+00  0.1594433E+01
0.1723356E+01  0.4540167E+00  0.1706621E+01
0.1732897E+01  0.4294241E+00  0.1715162E+01
0.1722218E+01  0.4972746E+00  0.1705586E+01
0.1715121E+01  0.4754441E+00  0.1699038E+01
0.1584567E+01  0.4345797E+00  0.1578278E+01
0.1563465E+01  0.4258523E+00  0.1558840E+01
0.1534166E+01  0.4440258E+00  0.1531441E+01
0.1615090E+01  0.4918227E+00  0.1606565E+01
0.1717469E+01  0.4134541E+00  0.1701030E+01
0.1718488E+01  0.3909170E+00  0.1701733E+01
0.1741353E+01  0.3769080E+00  0.1723023E+01
0.1781199E+01  0.4241746E+00  0.1759821E+01
0.2000000E+01  0.2500000E+00  0.1960223E+01
0.1756308E+01  0.4199875E+00  0.1736989E+01
0.1762447E+01  0.3937207E+00  0.1742582E+01
0.1765097E+01  0.4438197E+00  0.1745030E+01
0.1807974E+01  0.4625425E+00  0.1783895E+01
0.1789176E+01  0.4471344E+00  0.1766940E+01
0.1514158E+01  0.1287364E+00  0.1504439E+01
0.1777674E+01  0.4803377E+00  0.1756719E+01
0.1811145E+01  0.4395021E+00  0.1787334E+01
0.1850404E+01  0.4566449E+00  0.1822581E+01
0.1748483E+01  0.3522599E+00  0.1729575E+01
0.1731235E+01  0.3304535E+00  0.1713782E+01
0.1777870E+01  0.3654441E+00  0.1756956E+01
0.1748149E+01  0.2821176E+00  0.1729194E+01
0.1732875E+01  0.3039003E+00  0.1715180E+01
0.1708314E+01  0.2807181E+00  0.1692563E+01
0.1767650E+01  0.3193756E+00  0.1747413E+01
0.1372661E+01  0.1704076E+00  0.1373767E+01
0.1411157E+01  0.2494459E+00  0.1414838E+01
0.1448000E+01  0.2246098E+00  0.1448855E+01
0.1360382E+01  0.2278583E+00  0.1365718E+01
0.1433680E+01  0.2431125E+00  0.1436048E+01
0.1388814E+01  0.2314916E+00  0.1392965E+01
0.1314549E+01  0.2124991E+00  0.1321277E+01
0.1404157E+01  0.2007613E+00  0.1406488E+01
0.1415035E+01  0.1072182E+00  0.1407248E+01
0.1520299E+01  0.1091515E+00  0.1506918E+01
0.1459010E+01  0.1690672E+00  0.1456372E+01
0.1436337E+01  0.2690050E+00  0.1438905E+01
0.1443480E+01  0.1263360E+00  0.1437688E+01
0.1625000E+01  0.0000000E+00  0.1594636E+01
0.1414954E+01  0.2197329E+00  0.1417335E+01
0.1335299E+01  0.2266424E+00  0.1341577E+01
0.1396801E+01  0.1612344E+00  0.1395951E+01
0.1792033E+01  0.3934232E+00  0.1769931E+01
0.1541310E+01  0.1264947E+00  0.1530078E+01
0.1483859E+01  0.1256971E+00  0.1474747E+01
0.1500341E+01  0.1139400E+00  0.1488925E+01
0.1498380E+01  0.1421255E+00  0.1490568E+01
0.1478242E+01  0.1468909E+00  0.1472577E+01
0.1453147E+01  0.1972183E+00  0.1452479E+01
0.1348833E+01  0.2067866E+00  0.1353892E+01
0.1368157E+01  0.2800764E+00  0.1374587E+01
0.1250000E+01  0.0000000E+00  0.1233007E+01
0.1496272E+01  0.2780308E-01  0.1472713E+01
0.1430228E+01  0.1622338E+00  0.1427889E+01
0.1544491E+01  0.1012427E+00  0.1528180E+01
0.1505524E+01  0.5428530E-01  0.1484248E+01
0.1576405E+01  0.1180891E+00  0.1561707E+01
0.1526885E+01  0.8834234E-01  0.1507860E+01
0.1558557E+01  0.6358195E-01  0.1536231E+01
0.1372206E+01  0.9428859E-01  0.1362256E+01
0.1414069E+01  0.8636887E-01  0.1401899E+01
0.1351230E+01  0.1581055E+00  0.1352328E+01
0.1371634E+01  0.2528708E+00  0.1377369E+01
0.1392978E+01  0.2694234E+00  0.1397967E+01
0.1321668E+01  0.2603105E+00  0.1329725E+01
0.1392566E+01  0.3027057E+00  0.1398192E+01
0.1345601E+01  0.2495441E+00  0.1352320E+01
0.1349996E+01  0.1827855E+00  0.1353370E+01
0.1475238E+01  0.9618066E-01  0.1460933E+01
0.1487372E+01  0.4556180E+00  0.1488223E+01
0.1432024E+01  0.3509343E+00  0.1435944E+01
0.1619231E+01  0.5383449E+00  0.1610011E+01
0.1532505E+01  0.4233173E+00  0.1529995E+01
0.1547332E+01  0.4788657E+00  0.1543732E+01
0.1627786E+01  0.4750493E+00  0.1618116E+01
0.1750658E+01  0.4911384E+00  0.1732002E+01
0.1783313E+01  0.5336292E+00  0.1761768E+01
0.1744147E+01  0.5299352E+00  0.1725667E+01
0.1772978E+01  0.5077787E+00  0.1752278E+01
0.1739682E+01  0.5092411E+00  0.1721594E+01
0.1715917E+01  0.5251974E+00  0.1699569E+01
0.1809547E+01  0.4999146E+00  0.1785427E+01
0.1486188E+01  0.5335558E+00  0.1486620E+01
0.1695320E+01  0.5058771E+00  0.1680756E+01
0.1793562E+01  0.5145404E+00  0.1770932E+01
0.1827482E+01  0.5355643E+00  0.1801831E+01
0.1805457E+01  0.5332234E+00  0.1781929E+01
0.1812320E+01  0.5734372E+00  0.1788439E+01
0.1794794E+01  0.5557356E+00  0.1772440E+01
0.1637325E+01  0.5533192E+00  0.1626834E+01
0.1761146E+01  0.5591762E+00  0.1741512E+01
0.1789115E+01  0.5788851E+00  0.1767017E+01
0.1693317E+01  0.6123782E+00  0.1678861E+01
0.1522396E+01  0.5359490E+00  0.1520344E+01
0.1814654E+01  0.6254783E+00  0.1790332E+01
0.1726166E+01  0.5505978E+00  0.1708979E+01
0.1691322E+01  0.5307786E+00  0.1677114E+01
0.1516987E+01  0.5143680E+00  0.1515602E+01
0.1661909E+01  0.5147686E+00  0.1649643E+01
0.1761865E+01  0.6508066E+00  0.1741902E+01
0.1692174E+01  0.5698207E+00  0.1677887E+01
0.1780214E+01  0.6037461E+00  0.1759074E+01
[...]
POINT_DATA    3280
SCALARS hauteur float
LOOKUP_TABLE DEFAULT
       8.2497254E-03
       5.0318469E-06
       1.6558745E-05
       8.2041645E-03
       8.0634557E-03
       7.6906749E-03
       3.0015784E-02
       4.9639512E-03
       1.7536375E-02
       2.8180701E-02
       2.8112043E-02
       2.4226923E-02
       2.3844297E-02
       2.4445368E-02
       2.6553181E-02
       3.9755953E-04
       2.4648532E-02
       2.6953783E-02
       1.6943169E-02
       2.2193707E-02
       2.6034016E-02
       2.5592116E-02
       2.8530338E-02
       2.6479128E-02
       2.7017676E-02
       2.7343617E-02
       2.6588586E-02
       2.2536824E-02
       3.0627136E-02
       2.6840849E-02
       2.9319497E-02
       2.7819491E-02
       2.9165156E-02
       3.0199388E-02
       2.1534184E-02
       2.5067765E-02
       2.5558969E-02
       2.3066715E-02
       2.1980053E-02
       2.7562832E-02
       2.3671362E-02
       2.0898127E-02
       2.0734300E-02
       2.2892336E-02
       1.9635950E-02
       2.1535871E-02
       2.8201794E-02
       2.0579938E-02
       2.1818558E-02
       2.5055252E-02
       2.3430485E-02
       2.4190727E-02
       2.0765618E-02
       2.9757519E-02
       2.8286645E-02
       2.9480967E-02
       2.4001741E-02
       2.0963880E-02
       2.5515633E-02
       1.9956508E-02
       2.3352983E-02
       2.2034229E-02
       2.4166675E-02
       1.8231593E-02
       2.3888405E-02
       2.2796933E-02
       2.1918488E-02
       1.9155436E-04
       2.9646869E-02
       1.8562767E-02
       2.5855656E-02
       1.9510713E-02
       1.8845360E-02
       2.2490434E-02
       1.2962666E-02
       2.8746689E-02
       3.0434469E-02
       3.2196283E-02
       3.1100292E-02
       3.0752579E-02
       3.2365696E-02
       3.1404491E-02
       3.1594277E-02
       3.1223426E-02
       3.1895322E-02
       3.0090930E-02
       3.2997833E-02
       2.8745317E-02
       2.7149331E-02
       2.7663833E-02
       2.9159081E-02
       3.2432109E-02
       3.4196765E-02
       3.3195028E-02
       3.3480140E-02
       2.6939371E-02
       2.1455374E-02
       2.0479571E-02
       2.0309194E-02
       1.8464571E-02
       2.0170483E-02
       1.9145306E-02
       1.6641212E-02
       2.1907707E-02
       2.2800150E-02
       2.3137429E-02
       2.4985673E-02
       2.2722572E-02
       2.1640067E-02
       2.4122084E-02
       1.9649670E-02
       2.0571346E-02
       1.9142604E-02
       2.1804292E-02
       2.3838033E-02
       2.5178592E-02
       1.6277678E-02
       2.5988635E-02
       2.4600994E-02
       1.7617826E-02
       1.6807289E-02
       1.7697228E-02
       1.8105656E-02
       2.5296116E-02
       2.6540389E-02
       2.7855922E-02
       2.3669100E-02
       1.7796189E-02
       1.7500407E-02
       1.6380867E-02
       1.4126641E-02
       9.0078878E-05
       1.5690116E-02
       1.5266386E-02
       1.5117738E-02
       1.1960652E-02
       1.3428670E-02
       2.0462779E-02
       1.4480893E-02
       1.2291204E-02
       9.0622375E-03
       1.5945865E-02
       1.7056504E-02
       1.4525141E-02
       1.5891426E-02
       1.6846792E-02
       1.8301629E-02
       1.4998389E-02
       2.8468138E-02
       3.1810766E-02
       2.9717936E-02
       3.2452458E-02
       3.0945994E-02
       3.1835385E-02
       3.2931839E-02
       3.0319761E-02
       2.0419134E-02
       1.6923716E-02
       2.6445158E-02
       3.1199114E-02
       2.2981269E-02
       2.0278476E-03
       3.0586193E-02
       3.2894720E-02
       2.6992562E-02
       1.3619723E-02
       1.9491118E-02
       2.0466360E-02
       1.8491424E-02
       2.2056428E-02
       2.3801900E-02
       2.8297648E-02
       3.1946133E-02
       3.3701469E-02
       7.9234793E-03
       6.2675210E-03
       2.6170063E-02
       1.4476556E-02
       8.7346728E-03
       1.6725510E-02
       1.1411189E-02
       8.7414225E-03
       1.7403078E-02
       1.6017784E-02
       2.8032695E-02
       3.3076635E-02
       3.2755795E-02
       3.4403025E-02
       3.3384610E-02
       3.3540566E-02
       3.0283392E-02
       1.5101892E-02
       3.0499492E-02
       3.2464587E-02
       2.3056658E-02
       2.8037929E-02
       2.7243367E-02
       2.2777067E-02
       1.6240432E-02
       1.4002752E-02
       1.6286985E-02
       1.4641441E-02
       1.6589944E-02
       1.7856554E-02
       1.1951108E-02
       3.0056813E-02
       1.9229136E-02
       1.3122453E-02
       1.0776797E-02
       1.2460461E-02
       1.2245369E-02
       1.3423050E-02
       2.2146112E-02
       1.5471255E-02
       1.3565569E-02
       1.9297704E-02
       2.8294289E-02
       1.1850533E-02
       1.7220926E-02
       1.9505837E-02
       2.8853884E-02
       2.0861886E-02
       1.5156195E-02
       1.9443996E-02
       1.4346115E-02
       2.6139475E-02
       2.0626712E-02
       1.5990230E-02
       2.5073417E-02
       1.9730409E-02
       1.6719205E-02
       1.6102495E-02
       1.7454355E-02
       1.7079287E-02
       1.0728491E-02
       1.1347577E-02
       1.4427109E-04
       1.4675747E-02
       8.1156402E-03
       1.3889001E-02
       1.5335721E-02
       1.9387691E-02
       1.6968697E-02
       1.2638646E-02
       1.0235862E-02
       1.0445851E-02
       1.1835376E-02
       1.2723217E-02
       1.2811873E-02
       1.4504013E-02
       2.2469239E-02
       3.0921419E-02
       1.8366821E-02
       2.0249984E-02
       2.2428431E-02
       2.5303785E-02
       8.4747194E-03
       1.1610980E-02
       8.0429845E-03
       3.8366762E-03
       3.8436753E-03
       5.1362965E-03
       1.3014631E-02
       1.3107861E-02
       4.4317794E-03
       1.6990149E-02
       7.3573076E-03
       1.5990347E-02
       5.5970079E-03
       1.1961144E-03
       1.2490632E-02
       1.9617505E-02
       1.8535383E-02
       2.0393450E-02
       1.0952419E-02
       2.0351396E-02
       2.5450844E-02
       2.4257179E-02
       2.9579212E-02
       2.8001714E-02
       2.4529059E-02
       2.8996932E-02
       1.5000490E-02
       7.2123055E-03
       2.4791573E-02
       1.1466068E-02
       2.3874353E-02
       8.6676012E-03
       3.2578161E-02
       3.2934292E-02
       3.3968252E-02
       3.4524811E-02
       3.4867444E-02
       3.0209659E-02
       2.9048676E-02
       3.1657744E-02
       2.8334083E-02
       2.8504459E-02
       2.4398932E-02
       2.7298379E-02
       2.1864756E-02
       2.7070417E-02
       2.6088504E-02
       1.2815248E-02
       1.1023542E-02
       9.9830629E-03
       1.5164453E-02
       2.0730040E-02
       9.9903633E-03
       1.2571700E-02
       2.2292417E-02
       2.4688590E-02
       1.1408172E-02
       1.8270831E-02
       1.2213488E-02
       1.7344581E-02
       1.5182295E-02
       1.6119385E-02
       1.6526828E-02
       1.2441991E-02
       8.3580183E-03
       1.0119079E-04
       1.3426706E-02
       5.4172154E-03
       1.5096993E-02
       1.3780131E-02
       2.0847408E-02
       2.4529854E-04
       1.0657598E-02
       1.4681634E-02
       1.3464925E-02
       1.9009347E-02
       1.8004232E-02
       4.4724109E-03
       2.3641481E-02
       4.9960999E-03
       1.6150799E-02
       2.6355136E-02
       4.3906790E-03
       1.6545366E-03
       1.8480707E-02
       1.7944678E-02
       1.9742548E-02
       1.9874674E-02
       1.2340497E-02
       1.9977625E-02
       1.8516627E-02
       1.9714916E-02
       2.1447933E-02
       1.8245066E-02
       1.4337295E-02
       1.6679533E-02
       1.8097618E-02
       1.0956342E-03
       1.0481265E-02
       1.0029077E-02
       1.1994419E-02
       5.4858520E-03
       5.2607050E-03
       2.4929170E-03
       2.6377676E-03
       1.6313642E-03
       1.8732449E-02
       2.0407057E-02
       1.8955361E-02
       1.5920919E-02
       2.0223403E-02
       1.3356884E-02
       6.3322966E-03
       1.1586014E-02
       6.7696107E-03
       5.7302819E-03
       4.4341348E-03
       6.3492043E-03
       7.7447695E-03
       3.1903460E-02
       3.5819032E-02
       3.4100984E-02
       3.4736509E-02
       3.5651867E-02
       3.4197771E-02
       3.5121147E-02
       3.5832681E-02
       3.5739505E-02
       3.6703307E-02
       3.5050903E-02
       3.6267968E-02
       3.6773094E-02
       3.6509062E-02
       3.5802820E-02
       3.6136186E-02
       3.5272611E-02
       3.4051737E-02
       3.3628400E-02
       3.2913422E-02
       3.3097470E-02
       3.4201225E-02
       3.4269703E-02
       3.4750220E-02
       3.1124189E-02
       2.7474846E-02
       3.1591180E-02
       3.0075070E-02
       2.8070287E-02
       3.4791306E-02
       3.5955457E-02
       3.5592489E-02
       3.5274541E-02
       3.5163718E-02
       3.5804476E-02
       3.6821944E-02
       3.6430240E-02
       3.4806715E-02
       3.6317601E-02
       3.6689924E-02
       3.6844743E-02
       3.6341987E-02
       3.5342741E-02
       3.5605235E-02
       3.7506908E-02
       3.6194314E-02
       3.7352618E-02
       3.7191879E-02
       3.7111360E-02
       3.7009292E-02
       3.7369690E-02
       3.7078484E-02
       3.6738923E-02
       3.7149572E-02
       3.7374533E-02
       3.7737037E-02
       3.7557895E-02
       3.7593728E-02
       3.7246576E-02
       3.7790301E-02
       3.7091859E-02
       3.7548110E-02
       3.6243737E-02
       3.7609970E-02
       3.7773868E-02
       3.7983249E-02
       3.7913862E-02
       3.8045543E-02
       3.7943992E-02
       3.7438727E-02
       3.7206285E-02
       3.6830094E-02
       3.7384451E-02
       3.8007366E-02
       3.8071347E-02
       3.8065855E-02
       3.8143686E-02
       3.8103850E-02
       3.7545174E-02
       3.7927764E-02
       3.6498594E-02
       3.7061899E-02
       3.8112800E-02
       3.8109785E-02
       3.7815126E-02
       3.7987689E-02
       3.8072616E-02
       3.5616681E-02
       3.7091886E-02
       3.8146792E-02
       3.6635333E-02
       3.7644058E-02
       3.8118902E-02
       3.8094071E-02
       3.5441087E-02
       3.7467837E-02
       3.7725592E-02
       3.8016865E-02
       3.7944972E-02
       3.8013880E-02
       3.8118525E-02
       3.8027631E-02
       3.6051277E-02
       3.5501707E-02
       3.6237422E-02
       3.3900826E-02
       3.6364021E-02
       3.4829036E-02
       3.5059233E-02
       3.4496851E-02
       3.8141773E-02
       3.8071062E-02
       3.3928276E-02
       3.8084963E-02
       3.8180401E-02
       3.7692652E-02
       3.8086888E-02
       3.2832585E-02
       3.4295365E-02
       3.3495533E-02
       3.1951150E-02
       3.2890496E-02
       3.2827248E-02
       3.8169420E-02
       3.8165061E-02
       3.8164405E-02
       3.7880294E-02
       3.1969083E-02
       3.1002654E-02
       3.8158423E-02
       3.8136949E-02
       3.7937539E-02
       3.7399622E-02
       3.1156667E-02
       3.7791227E-02
       3.7748946E-02
       3.7655171E-02
       3.2278861E-02
       3.7738892E-02
       3.7944554E-02
       3.7076866E-02
       3.8104157E-02
       3.7394617E-02
       3.7987839E-02
       3.8067374E-02
       3.8125548E-02
       3.8183405E-02
       3.8166452E-02
       3.8168952E-02
       3.8182811E-02
       3.8174621E-02
       3.8152491E-02
       3.8141331E-02
       3.8178178E-02
       3.8183466E-02
       3.1873556E-02
       1.1754920E-02
       9.2041219E-03
       3.9916426E-03
       7.2398363E-03
       4.5152683E-03
       6.3858159E-03
       6.1231009E-03
       7.7228515E-03
       8.0600089E-03
       7.2256418E-03
       8.7681128E-03
       5.2983951E-05
       4.4997502E-04
       4.9355974E-03
       5.3951216E-03
       3.2675852E-03
       1.5160326E-03
       5.7136949E-03
       7.8718746E-04
       7.9355256E-04
       3.6779301E-03
       1.8824817E-03
       8.6437555E-04
       1.7494580E-03
       9.9864655E-05
       2.9680489E-02
       2.1138068E-02
       2.0047499E-02
       2.2460395E-02
       2.0893473E-02
       2.1506364E-02
       2.2750306E-02
       2.7703882E-02
       2.5396677E-02
       2.6709494E-02
       2.7956460E-02
       2.5664274E-02
       2.6646143E-02
       2.4384687E-02
       2.6902422E-02
       2.8240147E-02
       2.7624760E-02
       2.9343264E-02
       3.0407292E-02
       2.9413303E-02
       2.7784350E-02
       2.5515111E-02
       2.6661476E-02
       2.5804929E-02
       2.6620259E-02
       2.8255926E-02
       2.7076965E-02
       2.5824879E-02
       2.7100281E-02
       2.6210237E-02
       2.7180447E-02
       2.3836675E-02
       2.7037587E-02
       2.4291668E-02
       2.8849174E-02
       2.5744213E-02
       2.8241546E-02
       2.9524067E-02
       2.5233195E-02
       2.5640865E-02
       2.7293990E-02
       2.9255899E-02
       3.1172600E-02
       3.0110772E-02
       2.9025430E-02
       3.1683858E-02
       2.9852657E-02
       3.0783747E-02
       2.9995415E-02
       2.8627487E-02
       3.0826106E-02
       3.0409261E-02
       3.1845066E-02
       3.0182112E-02
       3.1224848E-02
       3.3391615E-02
       3.2323855E-02
       3.3519449E-02
       1.4872682E-02
       1.6626264E-02
       1.7965119E-02
       1.8701925E-02
       1.7923992E-02
       1.5974881E-02
       1.0130204E-02
       3.1890489E-03
       9.9282549E-03
       6.8880929E-03
       1.8537039E-02
       2.2039604E-02
       1.5384976E-02
       1.4278254E-02
       1.9459818E-02
       1.9633329E-02
       1.8095710E-02
       1.6048267E-02
       1.6602250E-02
       1.7316449E-02
       1.7249590E-02
       1.8798407E-02
       1.4058084E-02
       1.3741063E-02
       1.5410455E-02
       1.5064701E-02
       1.2716145E-02
       1.3938719E-02
       1.4745289E-02
       1.0840064E-02
       9.2420651E-03
       1.2537891E-02
       1.1402709E-02
       1.2412363E-02
       1.2751975E-02
       1.6367523E-02
       1.1134561E-02
       1.2826140E-02
       6.1412328E-03
       3.1632515E-03
       3.5883749E-03
       2.1109393E-03
       2.1685236E-02
       2.2104802E-02
       2.1522806E-02
       7.3685173E-03
       8.7564572E-03
       9.3691452E-03
       6.5996514E-03
       6.9717833E-03
       5.0248137E-03
       3.1782132E-02
       3.0247329E-02
       3.1764348E-02
       2.9911592E-02
       3.2359807E-02
       2.7424202E-02
       3.3407800E-02
       2.7252274E-02
       3.4350886E-02
       3.2767624E-02
       2.9559497E-02
       3.0567023E-02
       1.7957280E-02
       3.3203918E-02
       2.4081812E-02
       2.4118588E-02
       8.1691363E-03
       2.2259293E-02
       3.5326887E-02
       1.4171106E-02
       1.2683499E-02
       1.5187770E-02
       1.5195250E-02
       3.3075242E-02
       3.4600131E-02
       2.7338751E-02
       2.5835335E-02
       3.6143039E-02
       3.7368501E-02
       3.7125480E-02
       3.5924209E-02
       3.7484503E-02
       3.7991871E-02
       3.7917405E-02
       3.8170529E-02
       3.8133454E-02
       3.8143752E-02
       3.7515017E-02
       3.7386138E-02
       3.7254397E-02
       3.7618579E-02
       3.7844736E-02
       3.7688045E-02
       3.7844772E-02
       3.7473569E-02
       3.5585031E-02
       3.6595341E-02
       3.6114855E-02
       3.7279117E-02
       3.8182896E-02
       3.8172167E-02
       3.8180865E-02
       3.8179957E-02
       3.8170615E-02
       3.8064966E-02
       3.8182761E-02
       8.3802880E-03
       5.5975941E-04
       2.7265382E-03
       1.1012492E-04
       2.3131122E-02
       2.4050896E-02
       2.1679916E-02
       2.2857265E-02
       2.3428703E-02
       2.9453276E-02
       3.1973450E-02
       3.1543732E-02
       2.4264714E-02
       2.3073291E-02
       2.2157033E-02
       2.8749212E-02
       2.7980866E-02
       2.5459393E-02
       3.1593076E-02
       3.4533546E-02
       5.1036878E-03
       2.3186589E-03
       7.0795630E-03
       3.5934601E-03
       4.6128832E-03
       9.3864411E-03
       7.0580459E-04
       4.3215070E-03
       2.0435170E-04
       6.5733336E-04
       4.8990679E-04
       1.0199567E-03
       5.4040986E-04
       1.8902278E-03
       8.4584206E-05
       1.1920778E-02
       1.3008808E-02
       6.8917738E-03
       9.2423287E-03
       2.0512360E-02
       2.0955129E-02
       2.2731016E-02
       2.2713116E-02
       2.3632312E-02
       2.4636841E-02
       2.5141765E-02
       1.3973355E-02
       1.3651178E-02
       1.6800382E-02
       1.6970185E-02
       9.6923113E-03
       1.4587217E-02
       1.5604747E-02
       7.2897171E-03
       1.5141468E-02
       1.7018910E-02
       1.8546208E-02
       1.8404721E-02
       1.9904865E-02
       1.8120895E-02
       7.4519536E-04
       2.0043794E-02
       1.6419238E-02
       1.9675148E-02
       1.5467401E-02
       1.5762838E-02
       1.5095593E-02
       9.4069773E-03
       1.2822546E-02
       1.1426800E-02
       1.1740107E-02
       1.1127461E-02
       6.0147906E-03
       1.6822153E-03
       1.9281836E-02
       1.8314352E-02
       2.0680190E-02
       1.3822929E-02
       1.4102779E-02
       1.3236800E-02
       1.5541526E-02
       1.4665178E-02
       1.3914016E-02
       1.7112514E-02
       1.0169790E-02
       2.0089232E-03
       1.4869399E-03
       2.4765450E-02
       1.9351748E-02
       1.3080865E-02
       1.5419321E-02
       1.1837232E-02
       1.8355572E-02
       2.0967725E-02
       1.9103455E-02
       3.5989827E-02
       3.7845047E-02
       3.7841127E-02
       3.7930512E-02
       3.7903396E-02
       3.7986208E-02
       3.7770883E-02
       3.7744408E-02
       3.7897037E-02
       3.7723505E-02
       3.8175243E-02
       3.6905571E-02
       3.8017869E-02
       3.3959936E-02
       3.5711018E-02
       3.7510814E-02
       3.7424803E-02
       3.7671680E-02
       3.7269205E-02
       3.6821099E-02
       3.7779485E-02
       3.2468315E-02
       3.7833381E-02
       3.7925126E-02
       3.5304081E-02
       3.4381188E-02
       3.8032624E-02
       3.8053351E-02
       3.7804029E-02
       3.8005608E-02
       3.7926544E-02
       3.1085472E-02
       3.8135784E-02
       3.6570872E-02
       3.8077508E-02
       3.4774437E-02
       3.7901681E-02
       3.8125433E-02
       3.7995456E-02
       3.8011605E-02
       3.8095414E-02
       3.7707592E-02
       3.8166500E-02
       3.6566975E-02
       3.8148463E-02
       3.6106562E-02
       3.6260173E-02
       3.8174504E-02
       3.8119391E-02
       3.7081936E-02
       3.5538571E-02
       8.2388092E-03
       3.8078006E-02
       8.7433398E-03
       3.8114343E-02
       3.6654941E-02
       3.8171685E-02
       3.4898129E-02
       3.3667186E-02
       3.8153971E-02
       3.8185129E-02
       3.8171887E-02
       3.8177593E-02
       3.8114171E-02
       3.8151146E-02
       3.5766767E-02
       3.5946147E-02
       3.6099841E-02
       3.4681045E-02
       3.3837037E-02
       3.7885443E-02
       3.4366785E-02
       3.6321615E-02
       3.3789276E-02
       3.6373665E-02
       3.4892119E-02
       3.8182030E-02
       3.7065424E-02
       3.7955936E-02
       3.6699641E-02
       3.7839965E-02
       3.6815804E-02
       3.6239741E-02
       3.5329920E-02
       3.5012383E-02
       3.6288864E-02
       3.7357421E-02
       3.6946104E-02
       3.6971537E-02
       3.7026038E-02
       3.7483007E-02
       3.6325866E-02
       3.7630885E-02
       3.5481058E-02
       3.5924648E-02
       3.6384630E-02
       3.5488552E-02
       3.6770048E-02
       3.7226903E-02
       3.7185163E-02
       3.6688134E-02
       3.5863793E-02
       3.5323909E-02
       3.4835461E-02
       3.3603066E-02
       3.6680867E-02
       3.6264703E-02
       3.7625510E-02
       3.8182012E-02
       3.8165372E-02
       3.8016936E-02
       3.7969076E-02
       3.8177701E-02
       3.8183123E-02
       3.8173026E-02
       3.8179850E-02
       3.8144040E-02
       3.8183384E-02
       3.8163467E-02
       3.8174056E-02
       3.8109894E-02
       3.8183511E-02
       3.8172759E-02
       3.8182855E-02
       3.8146754E-02
       3.8054799E-02
       3.8109367E-02
       3.7910569E-02
       3.8118574E-02
       3.8030808E-02
       3.7781527E-02
       3.8165378E-02
       3.8151869E-02