# vtk DataFile Version 3.0
# Solution du M1 TR
ASCII
DATASET UNSTRUCTURED_GRID
POINTS   3280  float
0.0000000E+00  0.0000000E+00  0.2348997E-01
0.2000000E+01  0.0000000E+00  0.1960285E+01
0.2000000E+01  0.1000000E+01  0.1960435E+01
0.0000000E+00  0.1000000E+01  0.2361895E-01
0.1000000E+01  0.0000000E+00  0.9927311E+00
0.1000000E+01  0.1000000E+01  0.9919944E+00
0.1500000E+01  0.5000000E+00  0.1495003E+01
0.1500000E+01  0.0000000E+00  0.1472827E+01
0.1723284E+01  0.3570951E+00  0.1699773E+01
0.1500000E+01  0.2500000E+00  0.1494597E+01
0.1515103E+01  0.2763186E+00  0.1508980E+01
0.1594866E+01  0.2826386E+00  0.1583090E+01
0.1562500E+01  0.1875000E+00  0.1552083E+01
0.1534357E+01  0.1819434E+00  0.1525116E+01
0.1561083E+01  0.3343258E+00  0.1552015E+01
0.1750000E+01  0.0000000E+00  0.1715427E+01
0.1503267E+01  0.1622339E+00  0.1494785E+01
0.1514910E+01  0.2261192E+00  0.1508273E+01
0.1610795E+01  0.1290247E+00  0.1591252E+01
0.1539062E+01  0.1536458E+00  0.1527353E+01
0.1510772E+01  0.1982718E+00  0.1503503E+01
0.1541862E+01  0.2179813E+00  0.1533440E+01
0.1475030E+01  0.2178147E+00  0.1470582E+01
0.1539206E+01  0.2578835E+00  0.1531273E+01
0.1521085E+01  0.2465697E+00  0.1514198E+01
0.1496499E+01  0.2146241E+00  0.1490665E+01
0.1481433E+01  0.1870688E+00  0.1475237E+01
0.1586261E+01  0.1960616E+00  0.1573795E+01
0.1460896E+01  0.2899333E+00  0.1458026E+01
0.1542195E+01  0.2867649E+00  0.1534202E+01
0.1486080E+01  0.2754813E+00  0.1481650E+01
0.1536278E+01  0.3247610E+00  0.1528978E+01
0.1510131E+01  0.3295675E+00  0.1504533E+01
0.1455545E+01  0.2514402E+00  0.1452697E+01
0.1610995E+01  0.1909452E+00  0.1596650E+01
0.1564462E+01  0.2395252E+00  0.1554821E+01
0.1571524E+01  0.3026484E+00  0.1561459E+01
0.1613657E+01  0.2555806E+00  0.1600349E+01
0.1633998E+01  0.2714643E+00  0.1618789E+01
0.1534973E+01  0.3650914E+00  0.1527081E+01
0.1583157E+01  0.2286349E+00  0.1571761E+01
0.1586501E+01  0.1581416E+00  0.1572323E+01
0.1651985E+01  0.2274641E+00  0.1635145E+01
0.1619170E+01  0.2936434E+00  0.1605222E+01
0.1678889E+01  0.2641389E+00  0.1659435E+01
0.1642286E+01  0.2930521E+00  0.1626121E+01
0.1526415E+01  0.3446283E+00  0.1519466E+01
0.1662420E+01  0.3044259E+00  0.1644411E+01
0.1636786E+01  0.2469276E+00  0.1621558E+01
0.1588953E+01  0.3366240E+00  0.1577714E+01
0.1616427E+01  0.3314099E+00  0.1602883E+01
0.1598305E+01  0.3102698E+00  0.1586161E+01
0.1655410E+01  0.2614708E+00  0.1638101E+01
0.1487553E+01  0.3072167E+00  0.1483152E+01
0.1520126E+01  0.3036443E+00  0.1513740E+01
0.1477894E+01  0.2544664E+00  0.1473959E+01
0.1567847E+01  0.2133479E+00  0.1557350E+01
0.1663947E+01  0.3299725E+00  0.1646367E+01
0.1567022E+01  0.2696000E+00  0.1557349E+01
0.1678598E+01  0.3509559E+00  0.1659313E+01
0.1611933E+01  0.3827205E+00  0.1597801E+01
0.1640491E+01  0.3197373E+00  0.1624825E+01
0.1588015E+01  0.2526666E+00  0.1576659E+01
0.1708471E+01  0.3144917E+00  0.1686389E+01
0.1606944E+01  0.3564315E+00  0.1593803E+01
0.1604614E+01  0.2314093E+00  0.1591578E+01
0.1643491E+01  0.3631133E+00  0.1627255E+01
0.2000000E+01  0.5000000E+00  0.1960536E+01
0.1494727E+01  0.3621796E+00  0.1489710E+01
0.1701807E+01  0.3477237E+00  0.1680176E+01
0.1572156E+01  0.3701847E+00  0.1561768E+01
0.1688392E+01  0.3285111E+00  0.1668421E+01
0.1695932E+01  0.3904821E+00  0.1674658E+01
0.1636337E+01  0.3418163E+00  0.1621122E+01
0.1505941E+01  0.9448485E-01  0.1484751E+01
0.1423727E+01  0.1910920E+00  0.1420482E+01
0.1481447E+01  0.3359634E+00  0.1477537E+01
0.1441613E+01  0.3726133E+00  0.1439914E+01
0.1466699E+01  0.3599060E+00  0.1463534E+01
0.1476682E+01  0.4107296E+00  0.1472939E+01
0.1434448E+01  0.3273535E+00  0.1433248E+01
0.1464523E+01  0.3867258E+00  0.1461635E+01
0.1456903E+01  0.3373583E+00  0.1454493E+01
0.1454188E+01  0.3132491E+00  0.1451701E+01
0.1424069E+01  0.2919612E+00  0.1422949E+01
0.1490969E+01  0.3884111E+00  0.1486350E+01
0.1428051E+01  0.4202828E+00  0.1427374E+01
0.1513790E+01  0.3782958E+00  0.1507475E+01
0.1547789E+01  0.4092466E+00  0.1539053E+01
0.1535154E+01  0.3889763E+00  0.1527275E+01
0.1512699E+01  0.4170463E+00  0.1506733E+01
0.1441554E+01  0.3983607E+00  0.1440063E+01
0.1395941E+01  0.3853832E+00  0.1397065E+01
0.1420578E+01  0.3854393E+00  0.1420228E+01
0.1408336E+01  0.3518173E+00  0.1408562E+01
0.1549967E+01  0.3074339E+00  0.1541674E+01
0.1651639E+01  0.4114272E+00  0.1634214E+01
0.1668616E+01  0.3788978E+00  0.1650067E+01
0.1674624E+01  0.4027285E+00  0.1655487E+01
0.1706988E+01  0.4343785E+00  0.1684419E+01
0.1673984E+01  0.4357547E+00  0.1654284E+01
0.1695270E+01  0.4139894E+00  0.1674127E+01
0.1737273E+01  0.4034108E+00  0.1711916E+01
0.1645630E+01  0.3875965E+00  0.1629076E+01
0.1625874E+01  0.4052508E+00  0.1610704E+01
0.1627808E+01  0.4540126E+00  0.1612812E+01
0.1587158E+01  0.4136289E+00  0.1575364E+01
0.1633718E+01  0.4293591E+00  0.1618199E+01
0.1651607E+01  0.4466828E+00  0.1634181E+01
0.1605650E+01  0.4356658E+00  0.1592347E+01
0.1682168E+01  0.4808869E+00  0.1660864E+01
0.1671711E+01  0.4594749E+00  0.1652189E+01
0.1698428E+01  0.4596870E+00  0.1676558E+01
0.1646221E+01  0.4851828E+00  0.1628623E+01
0.1607747E+01  0.4151289E+00  0.1594201E+01
0.1584205E+01  0.4841185E+00  0.1571973E+01
0.1747573E+01  0.4622079E+00  0.1721093E+01
0.1568396E+01  0.4481495E+00  0.1557792E+01
0.1601760E+01  0.4629165E+00  0.1588813E+01
0.1723356E+01  0.4540167E+00  0.1699158E+01
0.1732897E+01  0.4294241E+00  0.1707625E+01
0.1722218E+01  0.4972746E+00  0.1697370E+01
0.1715121E+01  0.4754441E+00  0.1691190E+01
0.1584567E+01  0.4345797E+00  0.1572999E+01
0.1563465E+01  0.4258523E+00  0.1553729E+01
0.1534166E+01  0.4440258E+00  0.1526315E+01
0.1615090E+01  0.4918227E+00  0.1600345E+01
0.1717469E+01  0.4134541E+00  0.1694090E+01
0.1718488E+01  0.3909170E+00  0.1694843E+01
0.1741353E+01  0.3769080E+00  0.1715812E+01
0.1781199E+01  0.4241746E+00  0.1751998E+01
0.2000000E+01  0.2500000E+00  0.1960360E+01
0.1756308E+01  0.4199875E+00  0.1729295E+01
0.1762447E+01  0.3937207E+00  0.1735016E+01
0.1765097E+01  0.4438197E+00  0.1737086E+01
0.1807974E+01  0.4625425E+00  0.1775862E+01
0.1789176E+01  0.4471344E+00  0.1758869E+01
0.1514158E+01  0.1287364E+00  0.1500758E+01
0.1777674E+01  0.4803377E+00  0.1748587E+01
0.1811145E+01  0.4395021E+00  0.1779443E+01
0.1850404E+01  0.4566449E+00  0.1815808E+01
0.1748483E+01  0.3522599E+00  0.1722514E+01
0.1731235E+01  0.3304535E+00  0.1707037E+01
0.1777870E+01  0.3654441E+00  0.1749543E+01
0.1748149E+01  0.2821176E+00  0.1722260E+01
0.1732875E+01  0.3039003E+00  0.1708490E+01
0.1708314E+01  0.2807181E+00  0.1686448E+01
0.1767650E+01  0.3193756E+00  0.1740307E+01
0.1372661E+01  0.1704076E+00  0.1370161E+01
0.1411157E+01  0.2494459E+00  0.1410566E+01
0.1448000E+01  0.2246098E+00  0.1445071E+01
0.1360382E+01  0.2278583E+00  0.1361541E+01
0.1433680E+01  0.2431125E+00  0.1431936E+01
0.1388814E+01  0.2314916E+00  0.1388801E+01
0.1314549E+01  0.2124991E+00  0.1317326E+01
0.1404157E+01  0.2007613E+00  0.1402644E+01
0.1415035E+01  0.1072182E+00  0.1403625E+01
0.1520299E+01  0.1091515E+00  0.1502770E+01
0.1459010E+01  0.1690672E+00  0.1452970E+01
0.1436337E+01  0.2690050E+00  0.1434588E+01
0.1443480E+01  0.1263360E+00  0.1434140E+01
0.1625000E+01  0.0000000E+00  0.1593544E+01
0.1414954E+01  0.2197329E+00  0.1413395E+01
0.1335299E+01  0.2266424E+00  0.1337463E+01
0.1396801E+01  0.1612344E+00  0.1392416E+01
0.1792033E+01  0.3934232E+00  0.1762338E+01
0.1541310E+01  0.1264947E+00  0.1526327E+01
0.1483859E+01  0.1256971E+00  0.1471157E+01
0.1500341E+01  0.1139400E+00  0.1484944E+01
0.1498380E+01  0.1421255E+00  0.1487145E+01
0.1478242E+01  0.1468909E+00  0.1469218E+01
0.1453147E+01  0.1972183E+00  0.1448988E+01
0.1348833E+01  0.2067866E+00  0.1349917E+01
0.1368157E+01  0.2800764E+00  0.1369862E+01
0.1250000E+01  0.0000000E+00  0.1233147E+01
0.1496272E+01  0.2780308E-01  0.1469943E+01
0.1430228E+01  0.1622338E+00  0.1424379E+01
0.1544491E+01  0.1012427E+00  0.1523949E+01
0.1505524E+01  0.5428530E-01  0.1480715E+01
0.1576405E+01  0.1180891E+00  0.1557679E+01
0.1526885E+01  0.8834234E-01  0.1503664E+01
0.1558557E+01  0.6358195E-01  0.1532360E+01
0.1372206E+01  0.9428859E-01  0.1359067E+01
0.1414069E+01  0.8636887E-01  0.1398378E+01
0.1351230E+01  0.1581055E+00  0.1348788E+01
0.1371634E+01  0.2528708E+00  0.1372920E+01
0.1392978E+01  0.2694234E+00  0.1393422E+01
0.1321668E+01  0.2603105E+00  0.1325300E+01
0.1392566E+01  0.3027057E+00  0.1393324E+01
0.1345601E+01  0.2495441E+00  0.1347952E+01
0.1349996E+01  0.1827855E+00  0.1349637E+01
0.1475238E+01  0.9618066E-01  0.1456976E+01
0.1487372E+01  0.4556180E+00  0.1483130E+01
0.1432024E+01  0.3509343E+00  0.1430807E+01
0.1619231E+01  0.5383449E+00  0.1603100E+01
0.1532505E+01  0.4233173E+00  0.1524987E+01
0.1547332E+01  0.4788657E+00  0.1538357E+01
0.1627786E+01  0.4750493E+00  0.1612092E+01
0.1750658E+01  0.4911384E+00  0.1723737E+01
0.1783313E+01  0.5336292E+00  0.1753006E+01
0.1744147E+01  0.5299352E+00  0.1716907E+01
0.1772978E+01  0.5077787E+00  0.1743697E+01
0.1739682E+01  0.5092411E+00  0.1713052E+01
0.1715917E+01  0.5251974E+00  0.1691171E+01
0.1809547E+01  0.4999146E+00  0.1777141E+01
0.1486188E+01  0.5335558E+00  0.1481572E+01
0.1695320E+01  0.5058771E+00  0.1672824E+01
0.1793562E+01  0.5145404E+00  0.1762357E+01
0.1827482E+01  0.5355643E+00  0.1793988E+01
0.1805457E+01  0.5332234E+00  0.1773421E+01
0.1812320E+01  0.5734372E+00  0.1780057E+01
0.1794794E+01  0.5557356E+00  0.1763754E+01
0.1637325E+01  0.5533192E+00  0.1619489E+01
0.1761146E+01  0.5591762E+00  0.1732612E+01
0.1789115E+01  0.5788851E+00  0.1758345E+01
0.1693317E+01  0.6123782E+00  0.1671530E+01
0.1522396E+01  0.5359490E+00  0.1514989E+01
0.1814654E+01  0.6254783E+00  0.1782274E+01
0.1726166E+01  0.5505978E+00  0.1700226E+01
0.1691322E+01  0.5307786E+00  0.1669040E+01
0.1516987E+01  0.5143680E+00  0.1510349E+01
0.1661909E+01  0.5147686E+00  0.1641946E+01
0.1761865E+01  0.6508066E+00  0.1733781E+01
0.1692174E+01  0.5698207E+00  0.1669877E+01
0.1780214E+01  0.6037461E+00  0.1750417E+01
[...]
POINT_DATA    3280
SCALARS hauteur float
LOOKUP_TABLE DEFAULT
       2.3489969E-02
       1.5219975E-04
       3.0179752E-04
       2.3618945E-02
       1.2664509E-02
       1.1927773E-02
       2.4903336E-02
       2.7267798E-03
       1.0840315E-02
       2.4497244E-02
       2.4077608E-02
       2.0015632E-02
       2.0728766E-02
       2.1343459E-02
       2.2049441E-02
       3.1017130E-04
       2.1482838E-02
       2.3560190E-02
       1.2565238E-02
       1.8968840E-02
       2.2846177E-02
       2.2313282E-02
       2.4954182E-02
       2.2749390E-02
       2.3432768E-02
       2.3995689E-02
       2.3334916E-02
       1.9153172E-02
       2.6250876E-02
       2.2748361E-02
       2.5192972E-02
       2.3323475E-02
       2.4504722E-02
       2.6165981E-02
       1.7768041E-02
       2.1543707E-02
       2.1260856E-02
       1.8857615E-02
       1.7362053E-02
       2.2704900E-02
       2.0161610E-02
       1.7446011E-02
       1.6089871E-02
       1.8328123E-02
       1.4011665E-02
       1.6571364E-02
       2.3478337E-02
       1.5129131E-02
       1.7398767E-02
       2.0434840E-02
       1.8677525E-02
       1.9716100E-02
       1.5688811E-02
       2.5251430E-02
       2.3914904E-02
       2.5524405E-02
       2.0755397E-02
       1.5587999E-02
       2.1562843E-02
       1.4174650E-02
       1.7998864E-02
       1.7034342E-02
       2.0298858E-02
       1.1974122E-02
       1.8891451E-02
       1.8949216E-02
       1.6524619E-02
       4.0272350E-04
       2.4777679E-02
       1.2291844E-02
       2.0950335E-02
       1.3684375E-02
       1.2531692E-02
       1.7401897E-02
       8.8287569E-03
       2.5134711E-02
       2.5620166E-02
       2.7037250E-02
       2.6072025E-02
       2.5692191E-02
       2.7393537E-02
       2.6304550E-02
       2.6631098E-02
       2.6499385E-02
       2.7266891E-02
       2.5101319E-02
       2.7789385E-02
       2.3860831E-02
       2.2116569E-02
       2.2721383E-02
       2.4187879E-02
       2.7243841E-02
       2.8950175E-02
       2.7967704E-02
       2.8299588E-02
       2.2603430E-02
       1.5498415E-02
       1.4712533E-02
       1.4243364E-02
       1.1457582E-02
       1.3667596E-02
       1.2650113E-02
       9.2727165E-03
       1.6249021E-02
       1.7238802E-02
       1.7452237E-02
       1.9843730E-02
       1.7047479E-02
       1.5496037E-02
       1.8702907E-02
       1.2227294E-02
       1.3800492E-02
       1.1985572E-02
       1.5216908E-02
       1.8501998E-02
       1.9346865E-02
       8.3557045E-03
       2.0659609E-02
       1.8981280E-02
       1.0154806E-02
       9.2703786E-03
       9.4814390E-03
       1.0257044E-02
       2.0017546E-02
       2.1429143E-02
       2.2730141E-02
       1.7449219E-02
       1.0856770E-02
       1.0610201E-02
       9.1700813E-03
       6.3039161E-03
       2.2659661E-04
       7.9958152E-03
       7.7006572E-03
       7.1732560E-03
       3.9277743E-03
       5.3577999E-03
       1.6782263E-02
       6.3488778E-03
       4.4001382E-03
       2.2887843E-03
       8.8845026E-03
       1.0311128E-02
       7.1122854E-03
       8.9580691E-03
       1.0156693E-02
       1.2186714E-02
       7.8920892E-03
       2.4861536E-02
       2.7538397E-02
       2.5934003E-02
       2.8276090E-02
       2.6833734E-02
       2.7670833E-02
       2.8980242E-02
       2.6475797E-02
       1.6796795E-02
       1.2775035E-02
       2.3043213E-02
       2.6882529E-02
       1.9433240E-02
       9.3572231E-04
       2.6646413E-02
       2.8780354E-02
       2.3457922E-02
       6.0268698E-03
       1.5740272E-02
       1.6876033E-02
       1.4510677E-02
       1.8633060E-02
       2.0442705E-02
       2.4806824E-02
       2.7971468E-02
       2.8976874E-02
       8.0632868E-03
       3.4970029E-03
       2.2659730E-02
       1.0245265E-02
       5.2017425E-03
       1.2697181E-02
       7.2146555E-03
       4.8701788E-03
       1.4213278E-02
       1.2496727E-02
       2.4492664E-02
       2.8628087E-02
       2.8210827E-02
       2.9978265E-02
       2.8516038E-02
       2.9172499E-02
       2.6550532E-02
       1.1145039E-02
       2.5406680E-02
       2.7328254E-02
       1.6146063E-02
       2.3030257E-02
       2.1868250E-02
       1.6753376E-02
       7.9751438E-03
       5.2411651E-03
       7.5271571E-03
       6.0611927E-03
       8.0473960E-03
       9.4583479E-03
       3.6648932E-03
       2.5008603E-02
       1.1297733E-02
       4.5470884E-03
       2.9344616E-03
       3.9525347E-03
       3.8627598E-03
       4.7362678E-03
       1.4801419E-02
       6.5717118E-03
       4.8929631E-03
       1.1967002E-02
       2.2939626E-02
       3.7924419E-03
       8.4682792E-03
       1.1432219E-02
       2.3601085E-02
       1.3164276E-02
       7.0356927E-03
       1.1433746E-02
       5.6894367E-03
       2.0451123E-02
       1.2739470E-02
       7.3893342E-03
       1.9022318E-02
       1.4296014E-02
       8.4903371E-03
       8.0591779E-03
       1.1039551E-02
       1.1430846E-02
       3.4639541E-03
       5.4067380E-03
       4.8300311E-04
       9.0914576E-03
       2.2147747E-03
       5.9516863E-03
       6.7872411E-03
       1.3512755E-02
       1.0587996E-02
       4.9341151E-03
       3.2238381E-03
       3.2966035E-03
       4.3899139E-03
       5.3261662E-03
       5.4707542E-03
       7.2325090E-03
       1.9200109E-02
       2.7034307E-02
       1.4431402E-02
       1.6711864E-02
       1.9230049E-02
       2.1819456E-02
       4.6426000E-03
       7.3409119E-03
       4.4121073E-03
       1.8656174E-03
       1.6154001E-03
       2.5543279E-03
       8.6645131E-03
       8.2353517E-03
       1.8512368E-03
       1.2387230E-02
       3.6158035E-03
       1.1251682E-02
       2.6176607E-03
       6.1750013E-04
       7.3755575E-03
       1.5640057E-02
       1.4421483E-02
       1.6743089E-02
       7.2281099E-03
       1.6685459E-02
       2.2134420E-02
       2.0780079E-02
       2.6177494E-02
       2.4604838E-02
       2.1635837E-02
       2.5339743E-02
       1.1440712E-02
       5.2709814E-03
       2.1292040E-02
       7.9400084E-03
       2.0308810E-02
       5.3042650E-03
       2.7886230E-02
       2.7999446E-02
       2.8874838E-02
       2.9307264E-02
       2.9848966E-02
       2.5152665E-02
       2.3998148E-02
       2.6525803E-02
       2.3163813E-02
       2.3293109E-02
       1.8219408E-02
       2.1815726E-02
       1.4395999E-02
       2.1824305E-02
       2.0566518E-02
       4.6219981E-03
       3.1450521E-03
       2.5865446E-03
       6.3414070E-03
       1.3490330E-02
       2.9219104E-03
       4.2183609E-03
       1.5284085E-02
       1.8391673E-02
       4.4910133E-03
       1.1409808E-02
       4.6723019E-03
       9.7393321E-03
       7.6725521E-03
       9.4895091E-03
       9.1471919E-03
       4.4507504E-03
       2.4802847E-03
       9.6919798E-05
       6.0718344E-03
       1.4226936E-03
       8.7998328E-03
       5.3297437E-03
       1.4808544E-02
       4.1219346E-04
       3.0349512E-03
       7.7353721E-03
       7.0037856E-03
       1.2957827E-02
       9.7781533E-03
       2.7784982E-03
       1.7092589E-02
       1.3074995E-03
       1.1224912E-02
       2.0571544E-02
       1.1765177E-03
       6.4267488E-04
       1.2924210E-02
       1.3230494E-02
       1.3451848E-02
       1.3202354E-02
       6.9723581E-03
       1.5729140E-02
       1.4898767E-02
       1.4907910E-02
       1.7028685E-02
       1.4228936E-02
       9.2031860E-03
       1.2829805E-02
       1.2092479E-02
       4.3016706E-04
       3.0525340E-03
       3.1609945E-03
       4.6105372E-03
       2.5813337E-03
       2.6411239E-03
       1.1728873E-03
       1.1462738E-03
       7.7067664E-04
       1.3827371E-02
       1.6148202E-02
       1.5317644E-02
       1.2114464E-02
       1.6716117E-02
       1.0158149E-02
       3.9675579E-03
       8.2529065E-03
       4.5923139E-03
       3.3386728E-03
       2.2261522E-03
       3.4257536E-03
       4.2319622E-03
       2.7473657E-02
       3.0728713E-02
       2.9156476E-02
       2.9876635E-02
       3.0808588E-02
       2.9558302E-02
       3.0453077E-02
       3.1541534E-02
       3.1154239E-02
       3.2252629E-02
       3.0764301E-02
       3.1782782E-02
       3.2922239E-02
       3.2281293E-02
       3.2081263E-02
       3.2135345E-02
       3.1264702E-02
       2.9949797E-02
       2.9432894E-02
       2.9430118E-02
       2.9327304E-02
       3.0298623E-02
       3.0947289E-02
       3.1037732E-02
       2.7718193E-02
       2.4813479E-02
       2.7909847E-02
       2.6449568E-02
       2.5022659E-02
       2.9626901E-02
       3.0881613E-02
       3.0550678E-02
       3.0074892E-02
       2.9952601E-02
       3.0660896E-02
       3.2160019E-02
       3.1515057E-02
       2.9634575E-02
       3.1358824E-02
       3.2034928E-02
       3.2252337E-02
       3.1532619E-02
       3.0182339E-02
       3.0593326E-02
       3.3675227E-02
       3.1495571E-02
       3.3455326E-02
       3.2902830E-02
       3.2861243E-02
       3.2953167E-02
       3.4064234E-02
       3.3464491E-02
       3.3348319E-02
       3.2820245E-02
       3.3372808E-02
       3.4560733E-02
       3.3915584E-02
       3.4297325E-02
       3.3431033E-02
       3.5422604E-02
       3.2899934E-02
       3.4680770E-02
       3.1798507E-02
       3.4027060E-02
       3.4946060E-02
       3.5772473E-02
       3.5559369E-02
       3.6648650E-02
       3.6082707E-02
       3.5428212E-02
       3.4418463E-02
       3.2614183E-02
       3.3420656E-02
       3.6143991E-02
       3.6386014E-02
       3.6484055E-02
       3.7435802E-02
       3.7029691E-02
       3.5190681E-02
       3.6864034E-02
       3.1942911E-02
       3.3290051E-02
       3.6889655E-02
       3.6893770E-02
       3.6082683E-02
       3.6735136E-02
       3.7190630E-02
       3.0885998E-02
       3.3218150E-02
       3.7908771E-02
       3.2500902E-02
       3.4525014E-02
       3.7471392E-02
       3.7731986E-02
       3.0969610E-02
       3.3998445E-02
       3.4648988E-02
       3.7291023E-02
       3.7719405E-02
       3.7664724E-02
       3.8637710E-02
       3.8255857E-02
       3.1700858E-02
       3.0875446E-02
       3.2102364E-02
       2.8939416E-02
       3.2201670E-02
       2.9975177E-02
       3.0082229E-02
       2.9779703E-02
       3.8392288E-02
       3.9356521E-02
       2.8753078E-02
       3.8108551E-02
       3.8758433E-02
       3.8003168E-02
       3.8916691E-02
       2.7692572E-02
       2.9248580E-02
       2.8378831E-02
       2.6886984E-02
       2.7859734E-02
       2.8029506E-02
       3.8511275E-02
       3.8008828E-02
       3.8973299E-02
       3.8018999E-02
       2.6851983E-02
       2.5880019E-02
       3.7702634E-02
       3.9440020E-02
       3.8629863E-02
       3.6803954E-02
       2.6129718E-02
       3.9141149E-02
       3.7383846E-02
       3.6697165E-02
       2.7331266E-02
       3.8566507E-02
       3.9247110E-02
       3.7752983E-02
       4.0241722E-02
       3.7865331E-02
       3.9851443E-02
       3.9789397E-02
       3.9830488E-02
       4.0167287E-02
       3.9838365E-02
       3.9398850E-02
       3.9325455E-02
       4.0675127E-02
       4.0252273E-02
       4.0818540E-02
       4.0343287E-02
       4.0598185E-02
       2.6740519E-02
       3.4629473E-03
       2.2646459E-03
       1.0267132E-03
       1.6745566E-03
       1.0695955E-03
       1.5324102E-03
       1.3937723E-03
       1.9278150E-03
       2.1517817E-03
       1.8615992E-03
       2.4847853E-03
       2.3141259E-04
       3.5341729E-04
       1.1977336E-03
       1.3337966E-03
       8.6976863E-04
       5.5675916E-04
       1.3991135E-03
       3.8568921E-04
       4.3241059E-04
       9.2629623E-04
       6.2636073E-04
       3.7072431E-04
       5.6202378E-04
       2.3155199E-04
       2.4842110E-02
       1.3602162E-02
       1.2514932E-02
       1.5528882E-02
       1.4091538E-02
       1.4550270E-02
       1.6477719E-02
       2.2204898E-02
       1.9406091E-02
       2.1570650E-02
       2.2854195E-02
       2.0037483E-02
       2.1151451E-02
       1.8524896E-02
       2.1707600E-02
       2.3315934E-02
       2.2791068E-02
       2.4399504E-02
       2.5494605E-02
       2.4633379E-02
       2.2887059E-02
       2.0398801E-02
       2.1638243E-02
       2.1176381E-02
       2.1768418E-02
       2.3435677E-02
       2.2334386E-02
       2.1346461E-02
       2.2395184E-02
       2.1601713E-02
       2.2608122E-02
       1.9369989E-02
       2.2420014E-02
       2.0332048E-02
       2.3939485E-02
       2.1408718E-02
       2.3417318E-02
       2.4607435E-02
       2.1151456E-02
       2.1422257E-02
       2.2724819E-02
       2.4515081E-02
       2.5899741E-02
       2.5027165E-02
       2.4073638E-02
       2.6644859E-02
       2.4710120E-02
       2.5469072E-02
       2.4820875E-02
       2.3755229E-02
       2.5740503E-02
       2.5529272E-02
       2.7220163E-02
       2.5467982E-02
       2.6439693E-02
       2.8453782E-02
       2.7502895E-02
       2.8901016E-02
       6.1002240E-03
       7.8840889E-03
       9.4838935E-03
       1.0385139E-02
       1.0190018E-02
       1.0254401E-02
       3.2671733E-03
       8.6669883E-04
       3.7596590E-03
       1.6421925E-03
       1.1292565E-02
       1.7063669E-02
       1.0879654E-02
       9.4383864E-03
       1.4160658E-02
       1.4740315E-02
       1.2492955E-02
       9.8816339E-03
       1.0348609E-02
       1.1752425E-02
       1.2278886E-02
       1.4431621E-02
       8.3294277E-03
       6.5527668E-03
       8.5442895E-03
       8.3203224E-03
       6.2825923E-03
       7.1534396E-03
       8.4205713E-03
       3.9287700E-03
       3.7548346E-03
       5.5228803E-03
       3.8890840E-03
       4.9407154E-03
       5.0550066E-03
       9.6360513E-03
       3.9512906E-03
       5.6052575E-03
       3.1110199E-03
       1.4809820E-03
       1.5014188E-03
       9.1871287E-04
       1.7551648E-02
       1.8834814E-02
       1.8612538E-02
       4.7350318E-03
       5.6202174E-03
       6.4704083E-03
       3.9494063E-03
       4.0840636E-03
       2.6165901E-03
       2.7925642E-02
       2.7171600E-02
       2.9026305E-02
       2.7168096E-02
       2.9198231E-02
       2.5408978E-02
       3.0415572E-02
       2.4927473E-02
       3.1535014E-02
       3.0206642E-02
       2.7124811E-02
       2.8452689E-02
       1.7076077E-02
       3.1095592E-02
       2.1919943E-02
       2.2258953E-02
       1.0821794E-02
       2.0892716E-02
       3.2213905E-02
       1.4359077E-02
       1.0430886E-02
       1.4408103E-02
       1.3946528E-02
       3.0718053E-02
       3.2188824E-02
       2.4155969E-02
       2.2667397E-02
       3.1237292E-02
       3.3696789E-02
       3.3941942E-02
       3.1156373E-02
       3.3863294E-02
       3.5909183E-02
       3.5263685E-02
       3.8369439E-02
       3.7150715E-02
       3.9065084E-02
       3.8493532E-02
       3.9057164E-02
       3.8408091E-02
       3.9078618E-02
       4.0156549E-02
       3.9617738E-02
       3.9652089E-02
       3.9720420E-02
       3.6831167E-02
       3.7479182E-02
       3.5919041E-02
       3.7214474E-02
       3.9712190E-02
       3.9894612E-02
       3.9164812E-02
       3.8946070E-02
       3.9290619E-02
       4.0484230E-02
       4.1572518E-02
       2.0245542E-03
       4.4242383E-04
       7.6426018E-04
       3.3746899E-04
       1.6374210E-02
       1.7581558E-02
       1.5628742E-02
       1.7392698E-02
       1.7045054E-02
       2.4383001E-02
       2.7253772E-02
       2.6670889E-02
       1.8732995E-02
       1.7460567E-02
       1.8418948E-02
       2.4038103E-02
       2.3227058E-02
       2.1204074E-02
       2.6950279E-02
       3.0029001E-02
       1.3548627E-03
       7.1350555E-04
       2.1337083E-03
       1.0211081E-03
       1.3282779E-03
       3.6683095E-03
       3.3848393E-04
       1.2119514E-03
       1.3294400E-04
       2.5684495E-04
       3.9017429E-04
       5.8175067E-04
       2.1006311E-04
       5.6846636E-04
       1.5407345E-04
       5.6219556E-03
       7.2588163E-03
       1.7609410E-03
       2.4392909E-03
       1.4962894E-02
       1.6100950E-02
       1.8118630E-02
       1.8487946E-02
       1.8754955E-02
       2.0053969E-02
       2.0331811E-02
       9.1597923E-03
       8.5870628E-03
       1.2508568E-02
       1.3593035E-02
       4.1978207E-03
       1.0558991E-02
       1.1786157E-02
       2.4419019E-03
       1.0867950E-02
       1.3533794E-02
       1.5234522E-02
       1.5200790E-02
       1.6416046E-02
       1.4856460E-02
       6.6941318E-04
       1.6830167E-02
       1.2860525E-02
       1.6423662E-02
       1.1764320E-02
       1.2059320E-02
       1.1370076E-02
       4.9197878E-03
       8.2496464E-03
       6.2323945E-03
       7.4542573E-03
       5.9476245E-03
       2.6031864E-03
       1.1048461E-03
       1.5943999E-02
       1.5017726E-02
       1.7427036E-02
       6.4956357E-03
       6.7119101E-03
       5.6761528E-03
       8.5683473E-03
       7.3910885E-03
       6.5581689E-03
       1.0654771E-02
       3.1501370E-03
       9.1317060E-04
       6.6696152E-04
       2.2221183E-02
       1.7425810E-02
       1.1324013E-02
       1.3650778E-02
       1.0971921E-02
       1.5934142E-02
       1.8539133E-02
       1.7582294E-02
       3.3034890E-02
       3.5164017E-02
       3.5297116E-02
       3.5475410E-02
       3.5495841E-02
       3.6012372E-02
       3.4641727E-02
       3.4412206E-02
       3.5140739E-02
       3.4385770E-02
       3.8378346E-02
       3.8282427E-02
       4.3255101E-02
       3.8120576E-02
       3.6608071E-02
       4.0826573E-02
       4.0081865E-02
       4.0885616E-02
       4.0098845E-02
       3.8758901E-02
       4.1931637E-02
       3.3890536E-02
       4.1550622E-02
       4.2648029E-02
       3.6847326E-02
       3.2874574E-02
       4.2663266E-02
       4.2323199E-02
       4.0489967E-02
       4.0799389E-02
       4.1015429E-02
       3.4148185E-02
       4.1882988E-02
       3.6991670E-02
       4.1437638E-02
       3.5701201E-02
       4.2293346E-02
       4.1260074E-02
       4.1870793E-02
       4.1541788E-02
       4.2038084E-02
       4.0607717E-02
       4.2599114E-02
       3.8694858E-02
       4.2312548E-02
       3.8265449E-02
       3.7458670E-02
       4.2099887E-02
       4.2623893E-02
       3.8889565E-02
       3.7420376E-02
       1.8724919E-02
       4.3041929E-02
       1.6469538E-02
       4.3419541E-02
       3.9163422E-02
       4.3213429E-02
       3.5502624E-02
       3.4395065E-02
       4.3279685E-02
       4.3666072E-02
       4.3650802E-02
       4.4211685E-02
       4.2993846E-02
       4.2890099E-02
       3.8287386E-02
       3.6404141E-02
       3.7900474E-02
       3.5920536E-02
       3.5314692E-02
       4.1292760E-02
       3.6799510E-02
       3.7872602E-02
       3.4907828E-02
       3.5506813E-02
       3.6997376E-02
       4.4807044E-02
       3.9417631E-02
       4.2103141E-02
       3.6464938E-02
       4.1837270E-02
       3.6948092E-02
       3.6327080E-02
       3.5295348E-02
       3.4433077E-02
       3.5800239E-02
       3.6270136E-02
       3.6433058E-02
       3.6047707E-02
       3.5534376E-02
       3.5967651E-02
       3.5039513E-02
       3.5893586E-02
       3.4316015E-02
       3.3986158E-02
       3.4648380E-02
       3.3943891E-02
       3.4647539E-02
       3.5292399E-02
       3.4800840E-02
       3.4029785E-02
       3.3303182E-02
       3.3117910E-02
       3.2986603E-02
       3.1927857E-02
       3.3602272E-02
       3.3957285E-02
       3.7465375E-02
       3.9672152E-02
       3.8756540E-02
       3.9051447E-02
       4.0226680E-02
       4.1220701E-02
       4.0962510E-02
       4.1223033E-02
       4.0989091E-02
       4.0533164E-02
       4.1361132E-02
       4.0855625E-02
       4.1905336E-02
       4.0852283E-02
       4.1806467E-02
       4.1487549E-02
       4.2217938E-02
       4.1195847E-02
       4.1236750E-02
       4.1212853E-02
       4.0296984E-02
       4.1632304E-02
       4.0808574E-02
       4.0517934E-02
       4.1450082E-02
       4.1523731E-02