# vtk DataFile Version 3.0
# Solution du M1 TR
ASCII
DATASET UNSTRUCTURED_GRID
POINTS   3280  float
0.0000000E+00  0.0000000E+00  0.1503383E-01
0.2000000E+01  0.0000000E+00  0.1960147E+01
0.2000000E+01  0.1000000E+01  0.1960182E+01
0.0000000E+00  0.1000000E+01  0.1506351E-01
0.1000000E+01  0.0000000E+00  0.9939013E+00
0.1000000E+01  0.1000000E+01  0.9934522E+00
0.1500000E+01  0.5000000E+00  0.1496453E+01
0.1500000E+01  0.0000000E+00  0.1474009E+01
0.1723284E+01  0.3570951E+00  0.1706046E+01
0.1500000E+01  0.2500000E+00  0.1494854E+01
0.1515103E+01  0.2763186E+00  0.1509647E+01
0.1594866E+01  0.2826386E+00  0.1585025E+01
0.1562500E+01  0.1875000E+00  0.1552814E+01
0.1534357E+01  0.1819434E+00  0.1525600E+01
0.1561083E+01  0.3343258E+00  0.1553565E+01
0.1750000E+01  0.0000000E+00  0.1715604E+01
0.1503267E+01  0.1622339E+00  0.1495168E+01
0.1514910E+01  0.2261192E+00  0.1508530E+01
0.1610795E+01  0.1290247E+00  0.1594380E+01
0.1539062E+01  0.1536458E+00  0.1528324E+01
0.1510772E+01  0.1982718E+00  0.1503733E+01
0.1541862E+01  0.2179813E+00  0.1533937E+01
0.1475030E+01  0.2178147E+00  0.1470659E+01
0.1539206E+01  0.2578835E+00  0.1532057E+01
0.1521085E+01  0.2465697E+00  0.1514653E+01
0.1496499E+01  0.2146241E+00  0.1490752E+01
0.1481433E+01  0.1870688E+00  0.1475350E+01
0.1586261E+01  0.1960616E+00  0.1575229E+01
0.1460896E+01  0.2899333E+00  0.1458608E+01
0.1542195E+01  0.2867649E+00  0.1535256E+01
0.1486080E+01  0.2754813E+00  0.1482151E+01
0.1536278E+01  0.3247610E+00  0.1530186E+01
0.1510131E+01  0.3295675E+00  0.1505612E+01
0.1455545E+01  0.2514402E+00  0.1452986E+01
0.1610995E+01  0.1909452E+00  0.1598837E+01
0.1564462E+01  0.2395252E+00  0.1555770E+01
0.1571524E+01  0.3026484E+00  0.1563077E+01
0.1613657E+01  0.2555806E+00  0.1602639E+01
0.1633998E+01  0.2714643E+00  0.1621814E+01
0.1534973E+01  0.3650914E+00  0.1528759E+01
0.1583157E+01  0.2286349E+00  0.1573096E+01
0.1586501E+01  0.1581416E+00  0.1573967E+01
0.1651985E+01  0.2274641E+00  0.1638560E+01
0.1619170E+01  0.2936434E+00  0.1607913E+01
0.1678889E+01  0.2641389E+00  0.1664162E+01
0.1642286E+01  0.2930521E+00  0.1629632E+01
0.1526415E+01  0.3446283E+00  0.1520833E+01
0.1662420E+01  0.3044259E+00  0.1648696E+01
0.1636786E+01  0.2469276E+00  0.1624438E+01
0.1588953E+01  0.3366240E+00  0.1579812E+01
0.1616427E+01  0.3314099E+00  0.1605606E+01
0.1598305E+01  0.3102698E+00  0.1588366E+01
0.1655410E+01  0.2614708E+00  0.1641956E+01
0.1487553E+01  0.3072167E+00  0.1483975E+01
0.1520126E+01  0.3036443E+00  0.1514714E+01
0.1477894E+01  0.2544664E+00  0.1474250E+01
0.1567847E+01  0.2133479E+00  0.1558243E+01
0.1663947E+01  0.3299725E+00  0.1650430E+01
0.1567022E+01  0.2696000E+00  0.1558647E+01
0.1678598E+01  0.3509559E+00  0.1664051E+01
0.1611933E+01  0.3827205E+00  0.1601186E+01
0.1640491E+01  0.3197373E+00  0.1628216E+01
0.1588015E+01  0.2526666E+00  0.1578262E+01
0.1708471E+01  0.3144917E+00  0.1692072E+01
0.1606944E+01  0.3564315E+00  0.1596638E+01
0.1604614E+01  0.2314093E+00  0.1593567E+01
0.1643491E+01  0.3631133E+00  0.1631065E+01
0.2000000E+01  0.5000000E+00  0.1960416E+01
0.1494727E+01  0.3621796E+00  0.1490898E+01
0.1701807E+01  0.3477237E+00  0.1685777E+01
0.1572156E+01  0.3701847E+00  0.1563943E+01
0.1688392E+01  0.3285111E+00  0.1673340E+01
0.1695932E+01  0.3904821E+00  0.1680237E+01
0.1636337E+01  0.3418163E+00  0.1624463E+01
0.1505941E+01  0.9448485E-01  0.1487014E+01
0.1423727E+01  0.1910920E+00  0.1420725E+01
0.1481447E+01  0.3359634E+00  0.1478543E+01
0.1441613E+01  0.3726133E+00  0.1441094E+01
0.1466699E+01  0.3599060E+00  0.1464665E+01
0.1476682E+01  0.4107296E+00  0.1474148E+01
0.1434448E+01  0.3273535E+00  0.1434274E+01
0.1464523E+01  0.3867258E+00  0.1462802E+01
0.1456903E+01  0.3373583E+00  0.1455526E+01
0.1454188E+01  0.3132491E+00  0.1452557E+01
0.1424069E+01  0.2919612E+00  0.1423702E+01
0.1490969E+01  0.3884111E+00  0.1487578E+01
0.1428051E+01  0.4202828E+00  0.1428615E+01
0.1513790E+01  0.3782958E+00  0.1508875E+01
0.1547789E+01  0.4092466E+00  0.1541024E+01
0.1535154E+01  0.3889763E+00  0.1529013E+01
0.1512699E+01  0.4170463E+00  0.1508140E+01
0.1441554E+01  0.3983607E+00  0.1441259E+01
0.1395941E+01  0.3853832E+00  0.1398502E+01
0.1420578E+01  0.3854393E+00  0.1421476E+01
0.1408336E+01  0.3518173E+00  0.1409823E+01
0.1549967E+01  0.3074339E+00  0.1542939E+01
0.1651639E+01  0.4114272E+00  0.1638754E+01
0.1668616E+01  0.3788978E+00  0.1654649E+01
0.1674624E+01  0.4027285E+00  0.1660443E+01
0.1706988E+01  0.4343785E+00  0.1690874E+01
0.1673984E+01  0.4357547E+00  0.1659762E+01
0.1695270E+01  0.4139894E+00  0.1679851E+01
0.1737273E+01  0.4034108E+00  0.1719112E+01
0.1645630E+01  0.3875965E+00  0.1633181E+01
0.1625874E+01  0.4052508E+00  0.1614471E+01
0.1627808E+01  0.4540126E+00  0.1616603E+01
0.1587158E+01  0.4136289E+00  0.1578033E+01
0.1633718E+01  0.4293591E+00  0.1622100E+01
0.1651607E+01  0.4466828E+00  0.1638882E+01
0.1605650E+01  0.4356658E+00  0.1595584E+01
0.1682168E+01  0.4808869E+00  0.1667507E+01
0.1671711E+01  0.4594749E+00  0.1657869E+01
0.1698428E+01  0.4596870E+00  0.1683030E+01
0.1646221E+01  0.4851828E+00  0.1633769E+01
0.1607747E+01  0.4151289E+00  0.1597429E+01
0.1584205E+01  0.4841185E+00  0.1575363E+01
0.1747573E+01  0.4622079E+00  0.1729070E+01
0.1568396E+01  0.4481495E+00  0.1560422E+01
0.1601760E+01  0.4629165E+00  0.1592134E+01
0.1723356E+01  0.4540167E+00  0.1706328E+01
0.1732897E+01  0.4294241E+00  0.1715018E+01
0.1722218E+01  0.4972746E+00  0.1705389E+01
0.1715121E+01  0.4754441E+00  0.1698686E+01
0.1584567E+01  0.4345797E+00  0.1575755E+01
0.1563465E+01  0.4258523E+00  0.1555954E+01
0.1534166E+01  0.4440258E+00  0.1528227E+01
0.1615090E+01  0.4918227E+00  0.1604560E+01
0.1717469E+01  0.4134541E+00  0.1700603E+01
0.1718488E+01  0.3909170E+00  0.1701345E+01
0.1741353E+01  0.3769080E+00  0.1722856E+01
0.1781199E+01  0.4241746E+00  0.1760090E+01
0.2000000E+01  0.2500000E+00  0.1960291E+01
0.1756308E+01  0.4199875E+00  0.1737025E+01
0.1762447E+01  0.3937207E+00  0.1742638E+01
0.1765097E+01  0.4438197E+00  0.1745271E+01
0.1807974E+01  0.4625425E+00  0.1784401E+01
0.1789176E+01  0.4471344E+00  0.1767436E+01
0.1514158E+01  0.1287364E+00  0.1502185E+01
0.1777674E+01  0.4803377E+00  0.1757168E+01
0.1811145E+01  0.4395021E+00  0.1787755E+01
0.1850404E+01  0.4566449E+00  0.1822411E+01
0.1748483E+01  0.3522599E+00  0.1729463E+01
0.1731235E+01  0.3304535E+00  0.1713458E+01
0.1777870E+01  0.3654441E+00  0.1757070E+01
0.1748149E+01  0.2821176E+00  0.1729167E+01
0.1732875E+01  0.3039003E+00  0.1714931E+01
0.1708314E+01  0.2807181E+00  0.1691999E+01
0.1767650E+01  0.3193756E+00  0.1747463E+01
0.1372661E+01  0.1704076E+00  0.1370862E+01
0.1411157E+01  0.2494459E+00  0.1411105E+01
0.1448000E+01  0.2246098E+00  0.1445234E+01
0.1360382E+01  0.2278583E+00  0.1362504E+01
0.1433680E+01  0.2431125E+00  0.1432292E+01
0.1388814E+01  0.2314916E+00  0.1389443E+01
0.1314549E+01  0.2124991E+00  0.1318928E+01
0.1404157E+01  0.2007613E+00  0.1403046E+01
0.1415035E+01  0.1072182E+00  0.1404778E+01
0.1520299E+01  0.1091515E+00  0.1504944E+01
0.1459010E+01  0.1690672E+00  0.1453218E+01
0.1436337E+01  0.2690050E+00  0.1435083E+01
0.1443480E+01  0.1263360E+00  0.1434933E+01
0.1625000E+01  0.0000000E+00  0.1594274E+01
0.1414954E+01  0.2197329E+00  0.1413735E+01
0.1335299E+01  0.2266424E+00  0.1338747E+01
0.1396801E+01  0.1612344E+00  0.1392989E+01
0.1792033E+01  0.3934232E+00  0.1770180E+01
0.1541310E+01  0.1264947E+00  0.1528050E+01
0.1483859E+01  0.1256971E+00  0.1472312E+01
0.1500341E+01  0.1139400E+00  0.1486714E+01
0.1498380E+01  0.1421255E+00  0.1488071E+01
0.1478242E+01  0.1468909E+00  0.1469772E+01
0.1453147E+01  0.1972183E+00  0.1449059E+01
0.1348833E+01  0.2067866E+00  0.1350936E+01
0.1368157E+01  0.2800764E+00  0.1371009E+01
0.1250000E+01  0.0000000E+00  0.1234397E+01
0.1496272E+01  0.2780308E-01  0.1471471E+01
0.1430228E+01  0.1622338E+00  0.1424839E+01
0.1544491E+01  0.1012427E+00  0.1526493E+01
0.1505524E+01  0.5428530E-01  0.1482737E+01
0.1576405E+01  0.1180891E+00  0.1560077E+01
0.1526885E+01  0.8834234E-01  0.1506201E+01
0.1558557E+01  0.6358195E-01  0.1534888E+01
0.1372206E+01  0.9428859E-01  0.1360453E+01
0.1414069E+01  0.8636887E-01  0.1399773E+01
0.1351230E+01  0.1581055E+00  0.1349782E+01
0.1371634E+01  0.2528708E+00  0.1373917E+01
0.1392978E+01  0.2694234E+00  0.1394221E+01
0.1321668E+01  0.2603105E+00  0.1327084E+01
0.1392566E+01  0.3027057E+00  0.1394368E+01
0.1345601E+01  0.2495441E+00  0.1349275E+01
0.1349996E+01  0.1827855E+00  0.1350582E+01
0.1475238E+01  0.9618066E-01  0.1458812E+01
0.1487372E+01  0.4556180E+00  0.1484410E+01
0.1432024E+01  0.3509343E+00  0.1431968E+01
0.1619231E+01  0.5383449E+00  0.1608240E+01
0.1532505E+01  0.4233173E+00  0.1526708E+01
0.1547332E+01  0.4788657E+00  0.1540690E+01
0.1627786E+01  0.4750493E+00  0.1616342E+01
0.1750658E+01  0.4911384E+00  0.1732133E+01
0.1783313E+01  0.5336292E+00  0.1762377E+01
0.1744147E+01  0.5299352E+00  0.1725889E+01
0.1772978E+01  0.5077787E+00  0.1752780E+01
0.1739682E+01  0.5092411E+00  0.1721703E+01
0.1715917E+01  0.5251974E+00  0.1699366E+01
0.1809547E+01  0.4999146E+00  0.1785883E+01
0.1486188E+01  0.5335558E+00  0.1482952E+01
0.1695320E+01  0.5058771E+00  0.1680140E+01
0.1793562E+01  0.5145404E+00  0.1771549E+01
0.1827482E+01  0.5355643E+00  0.1801957E+01
0.1805457E+01  0.5332234E+00  0.1782469E+01
0.1812320E+01  0.5734372E+00  0.1789006E+01
0.1794794E+01  0.5557356E+00  0.1773025E+01
0.1637325E+01  0.5533192E+00  0.1625378E+01
0.1761146E+01  0.5591762E+00  0.1741897E+01
0.1789115E+01  0.5788851E+00  0.1767645E+01
0.1693317E+01  0.6123782E+00  0.1678212E+01
0.1522396E+01  0.5359490E+00  0.1517052E+01
0.1814654E+01  0.6254783E+00  0.1790736E+01
0.1726166E+01  0.5505978E+00  0.1708972E+01
0.1691322E+01  0.5307786E+00  0.1676435E+01
0.1516987E+01  0.5143680E+00  0.1512172E+01
0.1661909E+01  0.5147686E+00  0.1648561E+01
0.1761865E+01  0.6508066E+00  0.1742226E+01
0.1692174E+01  0.5698207E+00  0.1677224E+01
0.1780214E+01  0.6037461E+00  0.1759600E+01
[...]
POINT_DATA    3280
SCALARS hauteur float
LOOKUP_TABLE DEFAULT
       1.5033826E-02
       1.3672686E-05
       4.8383879E-05
       1.5063507E-02
       1.3834720E-02
       1.3385645E-02
       2.6353445E-02
       3.9086449E-03
       1.7113145E-02
       2.4754266E-02
       2.4744681E-02
       2.1949993E-02
       2.1460204E-02
       2.1827767E-02
       2.3599901E-02
       4.8768576E-04
       2.1865937E-02
       2.3817476E-02
       1.5693623E-02
       1.9940268E-02
       2.3075654E-02
       2.2809521E-02
       2.5030891E-02
       2.3532543E-02
       2.3888312E-02
       2.4083469E-02
       2.3447195E-02
       2.0587103E-02
       2.6833028E-02
       2.3802651E-02
       2.5694061E-02
       2.4531583E-02
       2.5583144E-02
       2.6455437E-02
       1.9954474E-02
       2.2492762E-02
       2.2879504E-02
       2.1147350E-02
       2.0386957E-02
       2.4382747E-02
       2.1496065E-02
       1.9089498E-02
       1.9504179E-02
       2.1018447E-02
       1.8739349E-02
       2.0081802E-02
       2.4844709E-02
       1.9413472E-02
       2.0278858E-02
       2.2532648E-02
       2.1399958E-02
       2.1920930E-02
       1.9543857E-02
       2.6074460E-02
       2.4888507E-02
       2.5815590E-02
       2.1648913E-02
       1.9650508E-02
       2.2860586E-02
       1.8912888E-02
       2.1384454E-02
       2.0425422E-02
       2.1901339E-02
       1.7657217E-02
       2.1725833E-02
       2.0938406E-02
       2.0334794E-02
       2.8286156E-04
       2.5966000E-02
       1.7892437E-02
       2.3125697E-02
       1.8603658E-02
       1.8110728E-02
       2.0743781E-02
       1.1091606E-02
       2.5377687E-02
       2.6626610E-02
       2.8216825E-02
       2.7203108E-02
       2.6900597E-02
       2.8419980E-02
       2.7472054E-02
       2.7664227E-02
       2.7356146E-02
       2.8018984E-02
       2.6329278E-02
       2.9030493E-02
       2.5260084E-02
       2.4087060E-02
       2.4459167E-02
       2.5594236E-02
       2.8440129E-02
       3.0387236E-02
       2.9214985E-02
       2.9560353E-02
       2.3868972E-02
       2.0037889E-02
       1.9295047E-02
       1.9199291E-02
       1.7912230E-02
       1.9145718E-02
       1.8373588E-02
       1.6468369E-02
       2.0354327E-02
       2.1005641E-02
       2.1243716E-02
       2.2512338E-02
       2.0948249E-02
       2.0196542E-02
       2.1939990E-02
       1.8869938E-02
       1.9481002E-02
       1.8457507E-02
       2.0363099E-02
       2.1729877E-02
       2.2736570E-02
       1.6331917E-02
       2.3289458E-02
       2.2301915E-02
       1.7324629E-02
       1.6662901E-02
       1.7500276E-02
       1.7753162E-02
       2.2773279E-02
       2.3654510E-02
       2.4642508E-02
       2.1664515E-02
       1.7369433E-02
       1.7112118E-02
       1.6214623E-02
       1.4395821E-02
       1.5761422E-04
       1.5726479E-02
       1.5322159E-02
       1.5357958E-02
       1.2466491E-02
       1.3924485E-02
       1.8208744E-02
       1.4929138E-02
       1.2711743E-02
       8.8917450E-03
       1.5833358E-02
       1.6732326E-02
       1.4638620E-02
       1.5864825E-02
       1.6597788E-02
       1.7738066E-02
       1.5048765E-02
       2.5562932E-02
       2.8077192E-02
       2.6097060E-02
       2.9239387E-02
       2.7189819E-02
       2.8313308E-02
       3.0582746E-02
       2.6878240E-02
       1.7949511E-02
       1.4949253E-02
       2.3291529E-02
       2.7377484E-02
       2.0226752E-02
       1.6661962E-03
       2.6986620E-02
       3.0064650E-02
       2.4030344E-02
       1.3868909E-02
       1.7463955E-02
       1.8031478E-02
       1.6280787E-02
       1.9559419E-02
       2.0996644E-02
       2.4877377E-02
       2.8989673E-02
       3.0123594E-02
       9.3133866E-03
       5.0256366E-03
       2.3120311E-02
       1.2788971E-02
       7.2229709E-03
       1.5095741E-02
       9.7518290E-03
       7.3989545E-03
       1.5599818E-02
       1.3891865E-02
       2.5486258E-02
       2.9624796E-02
       2.9009569E-02
       3.1761348E-02
       2.9560136E-02
       3.0496349E-02
       2.7495799E-02
       1.2981134E-02
       2.6686486E-02
       2.8489127E-02
       2.1286183E-02
       2.4750944E-02
       2.4201637E-02
       2.1003113E-02
       1.6371419E-02
       1.4611912E-02
       1.6509257E-02
       1.5144075E-02
       1.6699118E-02
       1.7653085E-02
       1.2406988E-02
       2.6389467E-02
       1.8612814E-02
       1.3739334E-02
       1.0903474E-02
       1.3000817E-02
       1.2811432E-02
       1.4007984E-02
       2.0690355E-02
       1.5856684E-02
       1.4193008E-02
       1.8649323E-02
       2.5002610E-02
       1.2254361E-02
       1.7213671E-02
       1.8827424E-02
       2.5423661E-02
       1.9779463E-02
       1.5480858E-02
       1.8781282E-02
       1.4872326E-02
       2.3407833E-02
       1.9623101E-02
       1.6247208E-02
       2.2669368E-02
       1.8861553E-02
       1.6788898E-02
       1.6284203E-02
       1.7213656E-02
       1.6879139E-02
       1.0943500E-02
       1.1666703E-02
       2.2727765E-04
       1.4887301E-02
       7.7104393E-03
       1.4316622E-02
       1.5689336E-02
       1.8547498E-02
       1.6724420E-02
       1.2973695E-02
       1.0409250E-02
       1.0669260E-02
       1.2150755E-02
       1.3003172E-02
       1.3066314E-02
       1.4610621E-02
       2.0051414E-02
       2.7728586E-02
       1.6820500E-02
       1.8329056E-02
       2.0278233E-02
       2.2751715E-02
       7.5094590E-03
       1.0181503E-02
       6.9268737E-03
       3.0266363E-03
       3.2131810E-03
       4.2252457E-03
       1.1749038E-02
       1.2129917E-02
       3.9909531E-03
       1.6181569E-02
       6.6550720E-03
       1.5030126E-02
       4.8746112E-03
       1.1252602E-03
       1.1817935E-02
       1.8406808E-02
       1.7353093E-02
       1.8859946E-02
       9.1861603E-03
       1.7828047E-02
       2.3320933E-02
       2.1345605E-02
       2.7725581E-02
       2.5878870E-02
       2.3290700E-02
       2.5807517E-02
       1.2889133E-02
       6.5609501E-03
       2.1990504E-02
       9.6422958E-03
       2.1242048E-02
       7.1240064E-03
       2.8692827E-02
       2.9017105E-02
       3.0176814E-02
       3.0844468E-02
       3.1513913E-02
       2.6435372E-02
       2.5514644E-02
       2.7720457E-02
       2.5007174E-02
       2.5131543E-02
       2.2215062E-02
       2.4235220E-02
       2.0483120E-02
       2.4072199E-02
       2.3377152E-02
       1.3422630E-02
       1.1310514E-02
       9.8720331E-03
       1.5637506E-02
       1.9644445E-02
       1.0025075E-02
       1.3141804E-02
       2.0743591E-02
       2.2407522E-02
       1.1678059E-02
       1.7860155E-02
       1.2625980E-02
       1.7222564E-02
       1.5438657E-02
       1.6172505E-02
       1.6554455E-02
       1.2863109E-02
       7.9733663E-03
       1.5796751E-04
       1.3820662E-02
       4.7992083E-03
       1.5285357E-02
       1.4271900E-02
       1.9710735E-02
       3.7511269E-04
       1.0914310E-02
       1.4962502E-02
       1.3810672E-02
       1.8366635E-02
       1.7749175E-02
       3.5484418E-03
       2.1664071E-02
       4.3126386E-03
       1.6090251E-02
       2.3577507E-02
       3.7577431E-03
       1.5503722E-03
       1.7939398E-02
       1.7482164E-02
       1.8923284E-02
       1.9034250E-02
       1.2578310E-02
       1.8992533E-02
       1.7838928E-02
       1.8817490E-02
       2.0067494E-02
       1.7672176E-02
       1.4561776E-02
       1.6416315E-02
       1.7588667E-02
       1.0886424E-03
       1.0735510E-02
       1.0114473E-02
       1.2384738E-02
       4.6357389E-03
       4.2068831E-03
       1.9622828E-03
       2.1917528E-03
       1.4409173E-03
       1.7959463E-02
       1.9190435E-02
       1.6543328E-02
       1.3697509E-02
       1.7957799E-02
       1.1677966E-02
       5.2360263E-03
       9.8373311E-03
       5.8294057E-03
       4.5902223E-03
       3.4803991E-03
       5.1208828E-03
       6.3896122E-03
       2.8063937E-02
       3.2748728E-02
       3.0450082E-02
       3.1509295E-02
       3.2986967E-02
       3.1017463E-02
       3.2445759E-02
       3.4366363E-02
       3.3601732E-02
       3.5374333E-02
       3.3106108E-02
       3.4646461E-02
       3.6710020E-02
       3.5558924E-02
       3.5535468E-02
       3.5457830E-02
       3.4110168E-02
       3.1925148E-02
       3.1013558E-02
       3.1912923E-02
       3.1347838E-02
       3.2699485E-02
       3.4222026E-02
       3.4008598E-02
       2.9650941E-02
       2.7098437E-02
       2.9486224E-02
       2.7664870E-02
       2.6915532E-02
       3.1240739E-02
       3.3111874E-02
       3.2597542E-02
       3.1905839E-02
       3.1727684E-02
       3.2757279E-02
       3.4908229E-02
       3.4066873E-02
       3.1183147E-02
       3.3670690E-02
       3.4479292E-02
       3.5251734E-02
       3.4138437E-02
       3.1969116E-02
       3.2385842E-02
       3.7383895E-02
       3.4111179E-02
       3.7324514E-02
       3.6188369E-02
       3.6303564E-02
       3.6611026E-02
       3.8637781E-02
       3.7638490E-02
       3.7607085E-02
       3.5852294E-02
       3.7077077E-02
       3.9168842E-02
       3.8056837E-02
       3.8884007E-02
       3.6089264E-02
       4.0907417E-02
       3.5624533E-02
       3.9723314E-02
       3.3532653E-02
       3.7653752E-02
       3.9959425E-02
       4.0993966E-02
       4.0897634E-02
       4.2619363E-02
       4.1884120E-02
       4.1283171E-02
       3.9511870E-02
       3.4858730E-02
       3.6655159E-02
       4.1749920E-02
       4.1729827E-02
       4.2088764E-02
       4.3578292E-02
       4.3060153E-02
       4.0743811E-02
       4.3238266E-02
       3.4040693E-02
       3.5463189E-02
       4.2620578E-02
       4.2258958E-02
       4.2069315E-02
       4.2929822E-02
       4.3508240E-02
       3.2380760E-02
       3.5564578E-02
       4.4479301E-02
       3.4349222E-02
       3.7721623E-02
       4.3853248E-02
       4.4378219E-02
       3.2127386E-02
       3.6903207E-02
       3.8226216E-02
       4.3815427E-02
       4.4597844E-02
       4.4454836E-02
       4.5629389E-02
       4.5268254E-02
       3.3159060E-02
       3.2214824E-02
       3.3533486E-02
       2.9998466E-02
       3.3751230E-02
       3.1166620E-02
       3.1525979E-02
       3.0751289E-02
       4.5207590E-02
       4.6433858E-02
       3.0061126E-02
       4.4992153E-02
       4.5545582E-02
       4.4974974E-02
       4.6004440E-02
       2.8878623E-02
       3.0463497E-02
       2.9555966E-02
       2.8044987E-02
       2.8941615E-02
       2.8881443E-02
       4.5260514E-02
       4.4475439E-02
       4.5881793E-02
       4.4994173E-02
       2.8051085E-02
       2.7183579E-02
       4.3851445E-02
       4.6522259E-02
       4.5687541E-02
       4.3460517E-02
       2.7326137E-02
       4.6049906E-02
       4.4173166E-02
       4.3264267E-02
       2.8337857E-02
       4.5547898E-02
       4.6253002E-02
       4.4437210E-02
       4.7158037E-02
       4.4712415E-02
       4.6746634E-02
       4.6791827E-02
       4.6882433E-02
       4.7132439E-02
       4.6893902E-02
       4.6419874E-02
       4.6236630E-02
       4.7542894E-02
       4.7244008E-02
       4.7549458E-02
       4.7302696E-02
       4.7456363E-02
       2.7902886E-02
       1.2145610E-02
       8.9243555E-03
       3.4592715E-03
       6.5923079E-03
       3.8532762E-03
       5.7223607E-03
       5.3720362E-03
       7.3457860E-03
       7.8715285E-03
       6.8500933E-03
       8.7023193E-03
       9.9368912E-05
       4.7948906E-04
       4.3700415E-03
       4.9017111E-03
       2.9421222E-03
       1.4003811E-03
       5.2174517E-03
       8.0493961E-04
       7.6998314E-04
       3.2995724E-03
       1.7793769E-03
       9.1287779E-04
       1.6951114E-03
       1.4462759E-04
       2.6077949E-02
       1.9981012E-02
       1.9197306E-02
       2.0902287E-02
       1.9768991E-02
       2.0215675E-02
       2.1063707E-02
       2.4548420E-02
       2.2906646E-02
       2.3814890E-02
       2.4691924E-02
       2.3084388E-02
       2.3754332E-02
       2.2194879E-02
       2.3924378E-02
       2.4919414E-02
       2.4505769E-02
       2.5798264E-02
       2.6689414E-02
       2.5864315E-02
       2.4594141E-02
       2.2995076E-02
       2.3804489E-02
       2.3163444E-02
       2.3780956E-02
       2.4922164E-02
       2.4073519E-02
       2.3117220E-02
       2.4045308E-02
       2.3426505E-02
       2.4028101E-02
       2.1770205E-02
       2.3951562E-02
       2.1913250E-02
       2.5382467E-02
       2.2991080E-02
       2.4886701E-02
       2.5903141E-02
       2.2435978E-02
       2.2823224E-02
       2.4117035E-02
       2.5707350E-02
       2.7349944E-02
       2.6399430E-02
       2.5551669E-02
       2.7748213E-02
       2.6217618E-02
       2.7128344E-02
       2.6357516E-02
       2.5226663E-02
       2.6990514E-02
       2.6630639E-02
       2.7899216E-02
       2.6487077E-02
       2.7337603E-02
       2.9416777E-02
       2.8327257E-02
       2.9584626E-02
       1.5364664E-02
       1.6759849E-02
       1.7743519E-02
       1.8261743E-02
       1.7670381E-02
       1.6003947E-02
       1.0221439E-02
       2.8006352E-03
       9.9893765E-03
       6.1220534E-03
       1.8091187E-02
       2.0515732E-02
       1.5415234E-02
       1.4436929E-02
       1.8588500E-02
       1.8687474E-02
       1.7550526E-02
       1.5868881E-02
       1.6390740E-02
       1.6886904E-02
       1.6654111E-02
       1.7876787E-02
       1.3764316E-02
       1.4002193E-02
       1.5469365E-02
       1.5119107E-02
       1.2855497E-02
       1.4092364E-02
       1.4703740E-02
       1.1182969E-02
       9.1652794E-03
       1.2846679E-02
       1.1736857E-02
       1.2787541E-02
       1.3147043E-02
       1.6261630E-02
       1.1375934E-02
       1.3183763E-02
       5.0315640E-03
       2.5537825E-03
       3.1110833E-03
       1.9053933E-03
       2.0164706E-02
       2.0089119E-02
       2.0062252E-02
       6.1390727E-03
       7.2667846E-03
       7.9638314E-03
       5.3695190E-03
       5.6423332E-03
       3.9588884E-03
       2.9166574E-02
       2.9462416E-02
       3.2207702E-02
       2.9850539E-02
       3.2018211E-02
       2.8504530E-02
       3.3801298E-02
       2.7581125E-02
       3.5433531E-02
       3.3901760E-02
       3.0145947E-02
       3.2098460E-02
       1.9509672E-02
       3.5464939E-02
       2.4259166E-02
       2.4918014E-02
       1.2183756E-02
       2.3740430E-02
       3.6155878E-02
       1.6542830E-02
       1.2017818E-02
       1.6492404E-02
       1.5928857E-02
       3.4760867E-02
       3.6673345E-02
       2.5707310E-02
       2.4073242E-02
       3.3295483E-02
       3.7869665E-02
       3.8596422E-02
       3.2908652E-02
       3.7021221E-02
       4.0361148E-02
       3.9784777E-02
       4.4843514E-02
       4.2899377E-02
       4.6105568E-02
       4.5326491E-02
       4.5545488E-02
       4.5050151E-02
       4.5837401E-02
       4.6699651E-02
       4.6218616E-02
       4.6456649E-02
       4.5930116E-02
       4.2632669E-02
       4.3886328E-02
       4.2322119E-02
       4.3983806E-02
       4.6696722E-02
       4.6795436E-02
       4.6065120E-02
       4.5707959E-02
       4.6139988E-02
       4.7228091E-02
       4.7976660E-02
       7.8547228E-03
       6.1132793E-04
       2.2975681E-03
       1.8391191E-04
       2.1350003E-02
       2.1968328E-02
       2.0297691E-02
       2.1109147E-02
       2.1546216E-02
       2.5902478E-02
       2.8037369E-02
       2.7640733E-02
       2.2105598E-02
       2.1258720E-02
       2.0483170E-02
       2.5334345E-02
       2.4751723E-02
       2.2488957E-02
       2.7686033E-02
       3.0806164E-02
       4.5319367E-03
       2.1493662E-03
       6.5620901E-03
       2.9966167E-03
       4.0705092E-03
       9.3872483E-03
       7.3905544E-04
       3.8137075E-03
       2.5653904E-04
       6.7670433E-04
       5.3772116E-04
       9.7056683E-04
       5.7087972E-04
       1.7418937E-03
       1.4415439E-04
       1.2267361E-02
       1.3375414E-02
       6.2546225E-03
       9.0760800E-03
       1.9436675E-02
       1.9719087E-02
       2.1006074E-02
       2.0946597E-02
       2.1663209E-02
       2.2345149E-02
       2.2722442E-02
       1.4129155E-02
       1.3907540E-02
       1.6567061E-02
       1.6410593E-02
       9.7623218E-03
       1.4514543E-02
       1.5465333E-02
       6.8767308E-03
       1.5164653E-02
       1.6586306E-02
       1.7768580E-02
       1.7324286E-02
       1.8857977E-02
       1.7257860E-02
       8.0294186E-04
       1.8801000E-02
       1.5628038E-02
       1.8614720E-02
       1.4942468E-02
       1.4786400E-02
       1.4814509E-02
       9.3362912E-03
       1.2710881E-02
       1.1581291E-02
       1.1455678E-02
       1.1159553E-02
       6.0391916E-03
       1.4352615E-03
       1.7667191E-02
       1.7006824E-02
       1.9045506E-02
       1.4125781E-02
       1.4394678E-02
       1.3612228E-02
       1.5601709E-02
       1.4876766E-02
       1.4202417E-02
       1.6834664E-02
       1.0292981E-02
       1.7330196E-03
       1.4672936E-03
       2.4205675E-02
       1.9482526E-02
       1.2979269E-02
       1.5548193E-02
       1.2684322E-02
       1.7713494E-02
       2.0419205E-02
       1.9888214E-02
       3.7472430E-02
       3.8983504E-02
       3.9096468E-02
       3.9781581E-02
       3.9498357E-02
       4.0479174E-02
       3.8567439E-02
       3.8529874E-02
       3.9849775E-02
       3.8694706E-02
       4.4971105E-02
       4.4620976E-02
       4.7589904E-02
       4.0778176E-02
       4.2646789E-02
       4.6208585E-02
       4.5934613E-02
       4.6552833E-02
       4.5669739E-02
       4.4707244E-02
       4.6872070E-02
       3.8718167E-02
       4.7002647E-02
       4.7275140E-02
       4.2364778E-02
       3.8163938E-02
       4.7630653E-02
       4.7686643E-02
       4.6742586E-02
       4.7251623E-02
       4.7135480E-02
       3.7345408E-02
       4.7924824E-02
       4.3533042E-02
       4.7629361E-02
       4.1423333E-02
       4.7201134E-02
       4.7701325E-02
       4.7466732E-02
       4.7465397E-02
       4.7803984E-02
       4.6573406E-02
       4.8161029E-02
       4.4338190E-02
       4.8046511E-02
       4.3635215E-02
       4.3561175E-02
       4.8114239E-02
       4.7955338E-02
       4.5088270E-02
       4.2778791E-02
       1.5054328E-02
       4.7807637E-02
       1.5667394E-02
       4.7969573E-02
       4.4540387E-02
       4.8239818E-02
       4.1406579E-02
       3.9913009E-02
       4.8152914E-02
       4.8333751E-02
       4.8257933E-02
       4.8299780E-02
       4.7957993E-02
       4.8117348E-02
       4.3195726E-02
       4.2700380E-02
       4.3557480E-02
       4.1426814E-02
       4.0412229E-02
       4.7094848E-02
       4.1264362E-02
       4.3798995E-02
       4.0238623E-02
       4.1762428E-02
       4.1928113E-02
       4.8320263E-02
       4.5218793E-02
       4.7365745E-02
       4.3016388E-02
       4.7029983E-02
       4.3592186E-02
       4.2810410E-02
       4.1467661E-02
       4.0422497E-02
       4.2161035E-02
       4.2707864E-02
       4.2968905E-02
       4.2427225E-02
       4.1654258E-02
       4.2200423E-02
       4.1086162E-02
       4.1937851E-02
       4.0199625E-02
       3.9410042E-02
       4.0420310E-02
       3.9574038E-02
       4.0224293E-02
       4.1191242E-02
       4.0283209E-02
       3.9070710E-02
       3.8083964E-02
       3.8090721E-02
       3.8157944E-02
       3.6860490E-02
       3.8213693E-02
       3.9153373E-02
       4.4330835E-02
       4.6611564E-02
       4.5402141E-02
       4.5897597E-02
       4.6937156E-02
       4.7818297E-02
       4.7708760E-02
       4.7771854E-02
       4.7687472E-02
       4.7304085E-02
       4.7888150E-02
       4.7545562E-02
       4.8041875E-02
       4.7413603E-02
       4.8060532E-02
       4.7901228E-02
       4.8162793E-02
       4.7677213E-02
       4.7465677E-02
       4.7589637E-02
       4.6798492E-02
       4.7761789E-02
       4.7243950E-02
       4.6659773E-02
       4.7873463E-02
       4.7839896E-02