# vtk DataFile Version 3.0
# Solution du M1 TR
ASCII
DATASET UNSTRUCTURED_GRID
POINTS   3280  float
0.0000000E+00  0.0000000E+00  0.2296422E-01
0.2000000E+01  0.0000000E+00  0.1960247E+01
0.2000000E+01  0.1000000E+01  0.1960403E+01
0.0000000E+00  0.1000000E+01  0.2314994E-01
0.1000000E+01  0.0000000E+00  0.9920882E+00
0.1000000E+01  0.1000000E+01  0.9919226E+00
0.1500000E+01  0.5000000E+00  0.1496713E+01
0.1500000E+01  0.0000000E+00  0.1473609E+01
0.1723284E+01  0.3570951E+00  0.1702009E+01
0.1500000E+01  0.2500000E+00  0.1495356E+01
0.1515103E+01  0.2763186E+00  0.1509990E+01
0.1594866E+01  0.2826386E+00  0.1584842E+01
0.1562500E+01  0.1875000E+00  0.1553325E+01
0.1534357E+01  0.1819434E+00  0.1526118E+01
0.1561083E+01  0.3343258E+00  0.1553483E+01
0.1750000E+01  0.0000000E+00  0.1715444E+01
0.1503267E+01  0.1622339E+00  0.1495592E+01
0.1514910E+01  0.2261192E+00  0.1509130E+01
0.1610795E+01  0.1290247E+00  0.1593298E+01
0.1539062E+01  0.1536458E+00  0.1528568E+01
0.1510772E+01  0.1982718E+00  0.1504308E+01
0.1541862E+01  0.2179813E+00  0.1534518E+01
0.1475030E+01  0.2178147E+00  0.1471099E+01
0.1539206E+01  0.2578835E+00  0.1532474E+01
0.1521085E+01  0.2465697E+00  0.1515186E+01
0.1496499E+01  0.2146241E+00  0.1491334E+01
0.1481433E+01  0.1870688E+00  0.1475822E+01
0.1586261E+01  0.1960616E+00  0.1575413E+01
0.1460896E+01  0.2899333E+00  0.1458676E+01
0.1542195E+01  0.2867649E+00  0.1535491E+01
0.1486080E+01  0.2754813E+00  0.1482439E+01
0.1536278E+01  0.3247610E+00  0.1530243E+01
0.1510131E+01  0.3295675E+00  0.1505633E+01
0.1455545E+01  0.2514402E+00  0.1453183E+01
0.1610995E+01  0.1909452E+00  0.1598589E+01
0.1564462E+01  0.2395252E+00  0.1556177E+01
0.1571524E+01  0.3026484E+00  0.1563024E+01
0.1613657E+01  0.2555806E+00  0.1602266E+01
0.1633998E+01  0.2714643E+00  0.1620902E+01
0.1534973E+01  0.3650914E+00  0.1528549E+01
0.1583157E+01  0.2286349E+00  0.1573343E+01
0.1586501E+01  0.1581416E+00  0.1573948E+01
0.1651985E+01  0.2274641E+00  0.1637407E+01
0.1619170E+01  0.2936434E+00  0.1607214E+01
0.1678889E+01  0.2641389E+00  0.1661788E+01
0.1642286E+01  0.2930521E+00  0.1628318E+01
0.1526415E+01  0.3446283E+00  0.1520761E+01
0.1662420E+01  0.3044259E+00  0.1646708E+01
0.1636786E+01  0.2469276E+00  0.1623675E+01
0.1588953E+01  0.3366240E+00  0.1579429E+01
0.1616427E+01  0.3314099E+00  0.1604826E+01
0.1598305E+01  0.3102698E+00  0.1587967E+01
0.1655410E+01  0.2614708E+00  0.1640388E+01
0.1487553E+01  0.3072167E+00  0.1484069E+01
0.1520126E+01  0.3036443E+00  0.1514877E+01
0.1477894E+01  0.2544664E+00  0.1474588E+01
0.1567847E+01  0.2133479E+00  0.1558710E+01
0.1663947E+01  0.3299725E+00  0.1648584E+01
0.1567022E+01  0.2696000E+00  0.1558828E+01
0.1678598E+01  0.3509559E+00  0.1661596E+01
0.1611933E+01  0.3827205E+00  0.1599947E+01
0.1640491E+01  0.3197373E+00  0.1626952E+01
0.1588015E+01  0.2526666E+00  0.1578324E+01
0.1708471E+01  0.3144917E+00  0.1688643E+01
0.1606944E+01  0.3564315E+00  0.1595755E+01
0.1604614E+01  0.2314093E+00  0.1593439E+01
0.1643491E+01  0.3631133E+00  0.1629441E+01
0.2000000E+01  0.5000000E+00  0.1960522E+01
0.1494727E+01  0.3621796E+00  0.1490820E+01
0.1701807E+01  0.3477237E+00  0.1682450E+01
0.1572156E+01  0.3701847E+00  0.1563489E+01
0.1688392E+01  0.3285111E+00  0.1670708E+01
0.1695932E+01  0.3904821E+00  0.1676998E+01
0.1636337E+01  0.3418163E+00  0.1623205E+01
0.1505941E+01  0.9448485E-01  0.1486178E+01
0.1423727E+01  0.1910920E+00  0.1420748E+01
0.1481447E+01  0.3359634E+00  0.1478470E+01
0.1441613E+01  0.3726133E+00  0.1440727E+01
0.1466699E+01  0.3599060E+00  0.1464459E+01
0.1476682E+01  0.4107296E+00  0.1474036E+01
0.1434448E+01  0.3273535E+00  0.1433887E+01
0.1464523E+01  0.3867258E+00  0.1462582E+01
0.1456903E+01  0.3373583E+00  0.1455282E+01
0.1454188E+01  0.3132491E+00  0.1452432E+01
0.1424069E+01  0.2919612E+00  0.1423471E+01
0.1490969E+01  0.3884111E+00  0.1487472E+01
0.1428051E+01  0.4202828E+00  0.1428175E+01
0.1513790E+01  0.3782958E+00  0.1508773E+01
0.1547789E+01  0.4092466E+00  0.1540749E+01
0.1535154E+01  0.3889763E+00  0.1528805E+01
0.1512699E+01  0.4170463E+00  0.1508081E+01
0.1441554E+01  0.3983607E+00  0.1440889E+01
0.1395941E+01  0.3853832E+00  0.1397598E+01
0.1420578E+01  0.3854393E+00  0.1420911E+01
0.1408336E+01  0.3518173E+00  0.1409127E+01
0.1549967E+01  0.3074339E+00  0.1543026E+01
0.1651639E+01  0.4114272E+00  0.1636650E+01
0.1668616E+01  0.3788978E+00  0.1652369E+01
0.1674624E+01  0.4027285E+00  0.1657889E+01
0.1706988E+01  0.4343785E+00  0.1686881E+01
0.1673984E+01  0.4357547E+00  0.1656822E+01
0.1695270E+01  0.4139894E+00  0.1676572E+01
0.1737273E+01  0.4034108E+00  0.1714109E+01
0.1645630E+01  0.3875965E+00  0.1631368E+01
0.1625874E+01  0.4052508E+00  0.1612990E+01
0.1627808E+01  0.4540126E+00  0.1615251E+01
0.1587158E+01  0.4136289E+00  0.1577366E+01
0.1633718E+01  0.4293591E+00  0.1620594E+01
0.1651607E+01  0.4466828E+00  0.1636746E+01
0.1605650E+01  0.4356658E+00  0.1594600E+01
0.1682168E+01  0.4808869E+00  0.1663515E+01
0.1671711E+01  0.4594749E+00  0.1654844E+01
0.1698428E+01  0.4596870E+00  0.1679113E+01
0.1646221E+01  0.4851828E+00  0.1631349E+01
0.1607747E+01  0.4151289E+00  0.1596374E+01
0.1584205E+01  0.4841185E+00  0.1574474E+01
0.1747573E+01  0.4622079E+00  0.1723202E+01
0.1568396E+01  0.4481495E+00  0.1559891E+01
0.1601760E+01  0.4629165E+00  0.1591171E+01
0.1723356E+01  0.4540167E+00  0.1701532E+01
0.1732897E+01  0.4294241E+00  0.1709860E+01
0.1722218E+01  0.4972746E+00  0.1699715E+01
0.1715121E+01  0.4754441E+00  0.1693628E+01
0.1584567E+01  0.4345797E+00  0.1575102E+01
0.1563465E+01  0.4258523E+00  0.1555596E+01
0.1534166E+01  0.4440258E+00  0.1528079E+01
0.1615090E+01  0.4918227E+00  0.1603035E+01
0.1717469E+01  0.4134541E+00  0.1696443E+01
0.1718488E+01  0.3909170E+00  0.1697122E+01
0.1741353E+01  0.3769080E+00  0.1717933E+01
0.1781199E+01  0.4241746E+00  0.1753656E+01
0.2000000E+01  0.2500000E+00  0.1960360E+01
0.1756308E+01  0.4199875E+00  0.1731308E+01
0.1762447E+01  0.3937207E+00  0.1736948E+01
0.1765097E+01  0.4438197E+00  0.1738953E+01
0.1807974E+01  0.4625425E+00  0.1776882E+01
0.1789176E+01  0.4471344E+00  0.1760297E+01
0.1514158E+01  0.1287364E+00  0.1502043E+01
0.1777674E+01  0.4803377E+00  0.1750257E+01
0.1811145E+01  0.4395021E+00  0.1780610E+01
0.1850404E+01  0.4566449E+00  0.1816322E+01
0.1748483E+01  0.3522599E+00  0.1724536E+01
0.1731235E+01  0.3304535E+00  0.1709189E+01
0.1777870E+01  0.3654441E+00  0.1751315E+01
0.1748149E+01  0.2821176E+00  0.1724300E+01
0.1732875E+01  0.3039003E+00  0.1710622E+01
0.1708314E+01  0.2807181E+00  0.1688741E+01
0.1767650E+01  0.3193756E+00  0.1742139E+01
0.1372661E+01  0.1704076E+00  0.1370281E+01
0.1411157E+01  0.2494459E+00  0.1410807E+01
0.1448000E+01  0.2246098E+00  0.1445419E+01
0.1360382E+01  0.2278583E+00  0.1361576E+01
0.1433680E+01  0.2431125E+00  0.1432270E+01
0.1388814E+01  0.2314916E+00  0.1388924E+01
0.1314549E+01  0.2124991E+00  0.1317230E+01
0.1404157E+01  0.2007613E+00  0.1402780E+01
0.1415035E+01  0.1072182E+00  0.1404387E+01
0.1520299E+01  0.1091515E+00  0.1504332E+01
0.1459010E+01  0.1690672E+00  0.1453451E+01
0.1436337E+01  0.2690050E+00  0.1435050E+01
0.1443480E+01  0.1263360E+00  0.1434803E+01
0.1625000E+01  0.0000000E+00  0.1593806E+01
0.1414954E+01  0.2197329E+00  0.1413613E+01
0.1335299E+01  0.2266424E+00  0.1337426E+01
0.1396801E+01  0.1612344E+00  0.1392690E+01
0.1792033E+01  0.3934232E+00  0.1763919E+01
0.1541310E+01  0.1264947E+00  0.1527792E+01
0.1483859E+01  0.1256971E+00  0.1472218E+01
0.1500341E+01  0.1139400E+00  0.1486320E+01
0.1498380E+01  0.1421255E+00  0.1488162E+01
0.1478242E+01  0.1468909E+00  0.1469970E+01
0.1453147E+01  0.1972183E+00  0.1449382E+01
0.1348833E+01  0.2067866E+00  0.1349908E+01
0.1368157E+01  0.2800764E+00  0.1370039E+01
0.1250000E+01  0.0000000E+00  0.1233576E+01
0.1496272E+01  0.2780308E-01  0.1470880E+01
0.1430228E+01  0.1622338E+00  0.1424798E+01
0.1544491E+01  0.1012427E+00  0.1525579E+01
0.1505524E+01  0.5428530E-01  0.1481898E+01
0.1576405E+01  0.1180891E+00  0.1559374E+01
0.1526885E+01  0.8834234E-01  0.1505115E+01
0.1558557E+01  0.6358195E-01  0.1533613E+01
0.1372206E+01  0.9428859E-01  0.1359735E+01
0.1414069E+01  0.8636887E-01  0.1399289E+01
0.1351230E+01  0.1581055E+00  0.1348891E+01
0.1371634E+01  0.2528708E+00  0.1373022E+01
0.1392978E+01  0.2694234E+00  0.1393652E+01
0.1321668E+01  0.2603105E+00  0.1325274E+01
0.1392566E+01  0.3027057E+00  0.1393657E+01
0.1345601E+01  0.2495441E+00  0.1347965E+01
0.1349996E+01  0.1827855E+00  0.1349653E+01
0.1475238E+01  0.9618066E-01  0.1458275E+01
0.1487372E+01  0.4556180E+00  0.1484474E+01
0.1432024E+01  0.3509343E+00  0.1431533E+01
0.1619231E+01  0.5383449E+00  0.1606085E+01
0.1532505E+01  0.4233173E+00  0.1526583E+01
0.1547332E+01  0.4788657E+00  0.1540500E+01
0.1627786E+01  0.4750493E+00  0.1614676E+01
0.1750658E+01  0.4911384E+00  0.1725779E+01
0.1783313E+01  0.5336292E+00  0.1754361E+01
0.1744147E+01  0.5299352E+00  0.1718867E+01
0.1772978E+01  0.5077787E+00  0.1745288E+01
0.1739682E+01  0.5092411E+00  0.1715126E+01
0.1715917E+01  0.5251974E+00  0.1693532E+01
0.1809547E+01  0.4999146E+00  0.1778050E+01
0.1486188E+01  0.5335558E+00  0.1483349E+01
0.1695320E+01  0.5058771E+00  0.1675446E+01
0.1793562E+01  0.5145404E+00  0.1763517E+01
0.1827482E+01  0.5355643E+00  0.1794660E+01
0.1805457E+01  0.5332234E+00  0.1774396E+01
0.1812320E+01  0.5734372E+00  0.1781000E+01
0.1794794E+01  0.5557356E+00  0.1764950E+01
0.1637325E+01  0.5533192E+00  0.1622479E+01
0.1761146E+01  0.5591762E+00  0.1734324E+01
0.1789115E+01  0.5788851E+00  0.1759587E+01
0.1693317E+01  0.6123782E+00  0.1674056E+01
0.1522396E+01  0.5359490E+00  0.1517209E+01
0.1814654E+01  0.6254783E+00  0.1783171E+01
0.1726166E+01  0.5505978E+00  0.1702408E+01
0.1691322E+01  0.5307786E+00  0.1671719E+01
0.1516987E+01  0.5143680E+00  0.1512387E+01
0.1661909E+01  0.5147686E+00  0.1644794E+01
0.1761865E+01  0.6508066E+00  0.1735421E+01
0.1692174E+01  0.5698207E+00  0.1672560E+01
0.1780214E+01  0.6037461E+00  0.1751867E+01
[...]
POINT_DATA    3280
SCALARS hauteur float
LOOKUP_TABLE DEFAULT
       2.2964222E-02
       1.1419391E-04
       2.6966865E-04
       2.3149936E-02
       1.2021615E-02
       1.1856023E-02
       2.6613505E-02
       3.5088987E-03
       1.3075813E-02
       2.5256466E-02
       2.5088199E-02
       2.1767383E-02
       2.1970510E-02
       2.2345738E-02
       2.3517647E-02
       3.2726082E-04
       2.2289721E-02
       2.4417005E-02
       1.4611176E-02
       2.0183904E-02
       2.3651553E-02
       2.3390469E-02
       2.5471658E-02
       2.3949808E-02
       2.4421680E-02
       2.4665017E-02
       2.3919094E-02
       2.0771332E-02
       2.6900866E-02
       2.4036941E-02
       2.5982095E-02
       2.4587971E-02
       2.5604025E-02
       2.6652511E-02
       1.9707348E-02
       2.2900055E-02
       2.2826349E-02
       2.0774294E-02
       1.9474688E-02
       2.4172503E-02
       2.1743437E-02
       1.9071351E-02
       1.8351816E-02
       2.0319529E-02
       1.6365119E-02
       1.8767923E-02
       2.4773314E-02
       1.7425977E-02
       1.9515567E-02
       2.2149832E-02
       2.0620646E-02
       2.1521752E-02
       1.7975117E-02
       2.6168031E-02
       2.5052053E-02
       2.6153274E-02
       2.2115842E-02
       1.7804628E-02
       2.3041161E-02
       1.6457312E-02
       2.0145546E-02
       1.9162109E-02
       2.1963983E-02
       1.4228080E-02
       2.0842736E-02
       2.0810199E-02
       1.8710896E-02
       3.8890767E-04
       2.5888010E-02
       1.4566405E-02
       2.2671950E-02
       1.5970956E-02
       1.4871476E-02
       1.9485310E-02
       1.0255919E-02
       2.5400192E-02
       2.6553318E-02
       2.7850113E-02
       2.6996948E-02
       2.6789198E-02
       2.8032914E-02
       2.7251812E-02
       2.7419558E-02
       2.7230472E-02
       2.7788889E-02
       2.6223574E-02
       2.8589891E-02
       2.5158402E-02
       2.3812573E-02
       2.4251968E-02
       2.5535737E-02
       2.8069405E-02
       2.9483086E-02
       2.8650396E-02
       2.8864395E-02
       2.3955853E-02
       1.7933459E-02
       1.7015050E-02
       1.6645203E-02
       1.3919264E-02
       1.6206007E-02
       1.5094911E-02
       1.1465425E-02
       1.8541026E-02
       1.9525288E-02
       1.9891162E-02
       2.1845431E-02
       1.9442315E-02
       1.8060519E-02
       2.0956172E-02
       1.4878549E-02
       1.6455058E-02
       1.4541156E-02
       1.7942523E-02
       2.0674210E-02
       2.1848289E-02
       1.0464569E-02
       2.2758256E-02
       2.1339543E-02
       1.2528326E-02
       1.1505630E-02
       1.1826996E-02
       1.2695423E-02
       2.2120042E-02
       2.3295792E-02
       2.4494245E-02
       2.0139451E-02
       1.3209817E-02
       1.2889179E-02
       1.1291599E-02
       7.9618789E-03
       2.2677704E-04
       1.0009155E-02
       9.6325004E-03
       9.0403353E-03
       4.9479178E-03
       6.7857146E-03
       1.8066535E-02
       8.0184280E-03
       5.5671242E-03
       2.8031056E-03
       1.0906510E-02
       1.2463364E-02
       8.8845661E-03
       1.0998160E-02
       1.2288617E-02
       1.4479730E-02
       9.7248792E-03
       2.4981430E-02
       2.7780037E-02
       2.6282512E-02
       2.8310966E-02
       2.7168516E-02
       2.7793647E-02
       2.8884768E-02
       2.6612598E-02
       1.7558781E-02
       1.4337097E-02
       2.3524991E-02
       2.7344396E-02
       2.0096704E-02
       1.1980244E-03
       2.6864588E-02
       2.8743213E-02
       2.3731773E-02
       7.6080973E-03
       1.7205565E-02
       1.7936623E-02
       1.5886125E-02
       1.9650124E-02
       2.1194045E-02
       2.5201113E-02
       2.7962166E-02
       2.9154052E-02
       8.4924397E-03
       4.4339801E-03
       2.3078721E-02
       1.1875264E-02
       6.3848722E-03
       1.4392459E-02
       8.6665090E-03
       6.1236083E-03
       1.4881342E-02
       1.3407407E-02
       2.4595445E-02
       2.8729372E-02
       2.8440626E-02
       2.9951455E-02
       2.8849747E-02
       2.9186009E-02
       2.6566718E-02
       1.2443597E-02
       2.6750755E-02
       2.8053809E-02
       1.9130901E-02
       2.4625857E-02
       2.4011124E-02
       1.9337189E-02
       1.0017057E-02
       6.5958121E-03
       9.4872627E-03
       7.6518426E-03
       1.0122125E-02
       1.1819752E-02
       4.5733591E-03
       2.6786044E-02
       1.3919218E-02
       5.7074413E-03
       3.6058210E-03
       4.9272752E-03
       4.8055311E-03
       5.9329586E-03
       1.7790980E-02
       8.2841389E-03
       6.1349165E-03
       1.4492695E-02
       2.5159651E-02
       4.6898296E-03
       1.0649581E-02
       1.4111531E-02
       2.5638681E-02
       1.6012282E-02
       8.6760135E-03
       1.4116800E-02
       7.1395981E-03
       2.2910832E-02
       1.5601271E-02
       9.2782959E-03
       2.1732344E-02
       1.6018058E-02
       1.0569813E-02
       9.9572344E-03
       1.2830052E-02
       1.2906028E-02
       4.2372593E-03
       6.2183449E-03
       4.5647856E-04
       1.0242270E-02
       2.6544721E-03
       7.3115175E-03
       8.4973137E-03
       1.5832863E-02
       1.2952583E-02
       6.2502734E-03
       4.0640028E-03
       4.1452443E-03
       5.5598285E-03
       6.7222967E-03
       6.8561823E-03
       8.9872408E-03
       2.0279302E-02
       2.7086584E-02
       1.6266727E-02
       1.8232664E-02
       2.0575228E-02
       2.2129282E-02
       5.8778539E-03
       8.9116807E-03
       5.5713508E-03
       2.4327924E-03
       2.1145691E-03
       3.2945142E-03
       1.0388467E-02
       1.0147046E-02
       2.4060392E-03
       1.4675780E-02
       4.6822946E-03
       1.3443792E-02
       3.3987421E-03
       7.4953245E-04
       9.3012306E-03
       1.7739674E-02
       1.6516177E-02
       1.8599942E-02
       8.4940343E-03
       1.7657703E-02
       2.2342203E-02
       2.1412162E-02
       2.6123938E-02
       2.4652141E-02
       2.1766914E-02
       2.5490094E-02
       1.2470516E-02
       6.1960349E-03
       2.1753706E-02
       9.1130436E-03
       2.0801585E-02
       6.4473582E-03
       2.8271501E-02
       2.8488581E-02
       2.9269163E-02
       2.9739495E-02
       3.0077355E-02
       2.6418676E-02
       2.5536996E-02
       2.7595653E-02
       2.4990853E-02
       2.5251485E-02
       2.1027559E-02
       2.4113462E-02
       1.7367703E-02
       2.3803807E-02
       2.2826162E-02
       5.8247198E-03
       3.9115763E-03
       3.1615139E-03
       7.9994044E-03
       1.6256481E-02
       3.5584448E-03
       5.2518142E-03
       1.8180769E-02
       2.1254683E-02
       5.3869865E-03
       1.3528490E-02
       5.7148312E-03
       1.1882782E-02
       9.2572809E-03
       1.1086462E-02
       1.1011771E-02
       5.4965665E-03
       2.9650375E-03
       1.0849917E-04
       7.3306935E-03
       1.6646676E-03
       1.0150399E-02
       6.6435566E-03
       1.7063941E-02
       4.1078009E-04
       3.7203836E-03
       9.1520353E-03
       8.1523567E-03
       1.4861442E-02
       1.2149564E-02
       3.2053708E-03
       1.9985082E-02
       1.5033329E-03
       1.2387530E-02
       2.3165973E-02
       1.3322737E-03
       6.9799319E-04
       1.4532851E-02
       1.4495344E-02
       1.5613080E-02
       1.5606853E-02
       7.7685606E-03
       1.6917290E-02
       1.5911774E-02
       1.6331624E-02
       1.8330741E-02
       1.5311885E-02
       1.0210178E-02
       1.3844379E-02
       1.4464501E-02
       4.7705893E-04
       3.8145189E-03
       3.9567596E-03
       5.8033145E-03
       3.3502379E-03
       3.4267961E-03
       1.5282791E-03
       1.4831711E-03
       9.6139955E-04
       1.6247860E-02
       1.8351010E-02
       1.6251555E-02
       1.3266583E-02
       1.7378448E-02
       1.1088201E-02
       4.9087084E-03
       9.3332143E-03
       5.5372717E-03
       4.2257324E-03
       2.9034917E-03
       4.3692372E-03
       5.3460639E-03
       2.7828983E-02
       3.1083722E-02
       2.9402683E-02
       3.0019413E-02
       3.0934127E-02
       2.9628760E-02
       3.0495033E-02
       3.1479984E-02
       3.1171491E-02
       3.2284498E-02
       3.0695323E-02
       3.1786456E-02
       3.2821966E-02
       3.2233060E-02
       3.1925632E-02
       3.2027529E-02
       3.1137226E-02
       2.9848966E-02
       2.9372760E-02
       2.9250945E-02
       2.9187044E-02
       3.0151638E-02
       3.0742470E-02
       3.0862896E-02
       2.7586821E-02
       2.4740199E-02
       2.7809986E-02
       2.6425786E-02
       2.4980422E-02
       2.9949390E-02
       3.1110456E-02
       3.0766945E-02
       3.0395175E-02
       3.0356988E-02
       3.0959987E-02
       3.2285710E-02
       3.1702012E-02
       3.0168981E-02
       3.1597106E-02
       3.2189724E-02
       3.2344746E-02
       3.1667943E-02
       3.0622171E-02
       3.1000332E-02
       3.3626360E-02
       3.1565712E-02
       3.3412382E-02
       3.2939232E-02
       3.2875829E-02
       3.2907710E-02
       3.3919944E-02
       3.3347362E-02
       3.3190077E-02
       3.2875712E-02
       3.3353964E-02
       3.4409378E-02
       3.3831040E-02
       3.4157775E-02
       3.3373027E-02
       3.5173829E-02
       3.2942897E-02
       3.4486902E-02
       3.2025326E-02
       3.3915426E-02
       3.4749686E-02
       3.5488825E-02
       3.5302827E-02
       3.6293661E-02
       3.5780855E-02
       3.5154841E-02
       3.4206659E-02
       3.2697680E-02
       3.3393244E-02
       3.5831986E-02
       3.6008568E-02
       3.6125836E-02
       3.6946304E-02
       3.6614641E-02
       3.4944985E-02
       3.6509736E-02
       3.2128150E-02
       3.3215348E-02
       3.6460398E-02
       3.6411340E-02
       3.5782230E-02
       3.6385566E-02
       3.6791822E-02
       3.1277375E-02
       3.3177374E-02
       3.7415594E-02
       3.2583081E-02
       3.4273759E-02
       3.7027593E-02
       3.7288082E-02
       3.1367650E-02
       3.3836717E-02
       3.4415254E-02
       3.6898770E-02
       3.7304975E-02
       3.7245803E-02
       3.8132401E-02
       3.7802214E-02
       3.1948949E-02
       3.1290039E-02
       3.2246500E-02
       2.9719103E-02
       3.2341741E-02
       3.0537655E-02
       3.0590653E-02
       3.0411506E-02
       3.7882415E-02
       3.8839311E-02
       2.9459721E-02
       3.7643698E-02
       3.8182719E-02
       3.7581768E-02
       3.8413839E-02
       2.8630874E-02
       2.9923424E-02
       2.9231204E-02
       2.8156355E-02
       2.8886927E-02
       2.9090860E-02
       3.7965908E-02
       3.7476544E-02
       3.8420160E-02
       3.7592236E-02
       2.8010583E-02
       2.7311720E-02
       3.7154466E-02
       3.8892690E-02
       3.8168716E-02
       3.6444034E-02
       2.7612585E-02
       3.8675537E-02
       3.6998373E-02
       3.6349549E-02
       2.8533840E-02
       3.8121901E-02
       3.8760016E-02
       3.7347838E-02
       3.9695019E-02
       3.7455055E-02
       3.9341757E-02
       3.9260672E-02
       3.9280417E-02
       3.9550459E-02
       3.9253819E-02
       3.8825110E-02
       3.8710339E-02
       4.0073744E-02
       3.9676126E-02
       4.0250443E-02
       3.9738258E-02
       3.9974676E-02
       2.7671428E-02
       4.2979528E-03
       2.7547863E-03
       1.1684828E-03
       1.9952869E-03
       1.2406030E-03
       1.8028209E-03
       1.6458748E-03
       2.3529878E-03
       2.6613773E-03
       2.2865014E-03
       3.1002827E-03
       2.1596605E-04
       3.4594704E-04
       1.4185792E-03
       1.6077771E-03
       1.0186715E-03
       6.0108727E-04
       1.6955658E-03
       4.1212412E-04
       4.3710328E-04
       1.0974771E-03
       7.0625224E-04
       4.1322610E-04
       6.4695285E-04
       2.2076099E-04
       2.6497407E-02
       1.6489921E-02
       1.5212801E-02
       1.8416473E-02
       1.6709619E-02
       1.7319211E-02
       1.9094405E-02
       2.4524782E-02
       2.2168819E-02
       2.3723870E-02
       2.4999219E-02
       2.2594089E-02
       2.3633796E-02
       2.1124879E-02
       2.3985786E-02
       2.5217944E-02
       2.4404819E-02
       2.6234522E-02
       2.7161745E-02
       2.6164373E-02
       2.4688977E-02
       2.2370882E-02
       2.3544481E-02
       2.2584089E-02
       2.3359212E-02
       2.4606183E-02
       2.3639733E-02
       2.2449203E-02
       2.3534835E-02
       2.2843308E-02
       2.3481567E-02
       2.0693813E-02
       2.3410131E-02
       2.1250821E-02
       2.4850990E-02
       2.2372573E-02
       2.4455012E-02
       2.5617510E-02
       2.1911085E-02
       2.2263539E-02
       2.3486675E-02
       2.5677340E-02
       2.6682417E-02
       2.5914576E-02
       2.4862764E-02
       2.7501455E-02
       2.5544866E-02
       2.6139012E-02
       2.5568430E-02
       2.4474296E-02
       2.6628291E-02
       2.6537743E-02
       2.8196682E-02
       2.6670162E-02
       2.7423930E-02
       2.9086045E-02
       2.8296373E-02
       2.9622152E-02
       7.6810765E-03
       9.9226049E-03
       1.1870031E-02
       1.2931387E-02
       1.2522615E-02
       1.1584067E-02
       3.9659677E-03
       1.0126405E-03
       4.4316166E-03
       1.9200864E-03
       1.3651234E-02
       1.8766538E-02
       1.1878427E-02
       1.0362970E-02
       1.6543191E-02
       1.7110988E-02
       1.4941454E-02
       1.2334512E-02
       1.2785420E-02
       1.4253922E-02
       1.4702134E-02
       1.6720686E-02
       1.0578125E-02
       8.4835963E-03
       1.0738040E-02
       1.0575189E-02
       8.1526192E-03
       9.2254527E-03
       1.0698400E-02
       5.1391207E-03
       5.0426913E-03
       7.2156772E-03
       4.9879260E-03
       6.4068687E-03
       6.4770324E-03
       1.1829052E-02
       4.9839887E-03
       6.9972535E-03
       4.0106145E-03
       1.9255748E-03
       1.9444566E-03
       1.1551096E-03
       1.9635179E-02
       1.9268442E-02
       1.8927972E-02
       5.7454801E-03
       6.7360985E-03
       7.5154064E-03
       4.9185916E-03
       5.0936423E-03
       3.3881707E-03
       2.7869403E-02
       2.7032992E-02
       2.8827427E-02
       2.7010256E-02
       2.9004180E-02
       2.5272164E-02
       3.0198524E-02
       2.4825530E-02
       3.1305268E-02
       2.9987489E-02
       2.6960966E-02
       2.8240913E-02
       1.7090251E-02
       3.0836498E-02
       2.1933000E-02
       2.2225592E-02
       1.0571754E-02
       2.0847106E-02
       3.1997401E-02
       1.4324232E-02
       1.1131986E-02
       1.4535494E-02
       1.4203834E-02
       3.0479825E-02
       3.1936709E-02
       2.4182695E-02
       2.2794029E-02
       3.1520149E-02
       3.3604548E-02
       3.3772130E-02
       3.1477808E-02
       3.3744345E-02
       3.5492940E-02
       3.5000608E-02
       3.7783067E-02
       3.6655950E-02
       3.8525733E-02
       3.8061585E-02
       3.8620907E-02
       3.7984824E-02
       3.8625907E-02
       3.9670218E-02
       3.9151950E-02
       3.9167204E-02
       3.9280037E-02
       3.6457146E-02
       3.7084719E-02
       3.5557886E-02
       3.6829872E-02
       3.9100700E-02
       3.9265592E-02
       3.8578374E-02
       3.8345710E-02
       3.8668828E-02
       3.9951790E-02
       4.0972041E-02
       2.4282518E-03
       4.4446031E-04
       8.4624643E-04
       3.1105372E-04
       1.9321103E-02
       2.0509955E-02
       1.8015498E-02
       1.9514877E-02
       1.9843169E-02
       2.6304989E-02
       2.8500800E-02
       2.8047185E-02
       2.1033092E-02
       1.9727920E-02
       1.9426930E-02
       2.5465067E-02
       2.4574348E-02
       2.1825676E-02
       2.8132018E-02
       3.0598987E-02
       1.5951077E-03
       8.1078641E-04
       2.5115557E-03
       1.1335807E-03
       1.5282477E-03
       4.2510198E-03
       3.6001716E-04
       1.4107943E-03
       1.4025721E-04
       2.8547116E-04
       3.8992471E-04
       5.9523226E-04
       2.4646035E-04
       6.6190081E-04
       1.7083935E-04
       6.5402482E-03
       8.2468382E-03
       2.0704462E-03
       2.9453478E-03
       1.6879062E-02
       1.7671934E-02
       1.9555422E-02
       1.9675669E-02
       2.0442777E-02
       2.1508610E-02
       2.2024817E-02
       1.0104418E-02
       9.4750579E-03
       1.3587337E-02
       1.4651971E-02
       4.7595709E-03
       1.1645937E-02
       1.2836744E-02
       2.8151917E-03
       1.1855267E-02
       1.4561467E-02
       1.6223840E-02
       1.6196875E-02
       1.7408001E-02
       1.5882973E-02
       7.2073714E-04
       1.7778785E-02
       1.3970997E-02
       1.7381330E-02
       1.2897512E-02
       1.3163459E-02
       1.2468372E-02
       5.7614515E-03
       9.3682798E-03
       7.2185520E-03
       8.4908948E-03
       6.9615587E-03
       3.0544235E-03
       1.2422258E-03
       1.6862372E-02
       1.5998356E-02
       1.8322032E-02
       8.3332123E-03
       8.5129085E-03
       7.1854245E-03
       1.0681737E-02
       9.2602758E-03
       8.2063665E-03
       1.2888804E-02
       3.9285054E-03
       1.1586053E-03
       8.0220574E-04
       2.2258037E-02
       1.7600230E-02
       1.1857333E-02
       1.4040151E-02
       1.1377482E-02
       1.6301207E-02
       1.8757971E-02
       1.7680397E-02
       3.2811670E-02
       3.4838441E-02
       3.4916071E-02
       3.5147276E-02
       3.5104674E-02
       3.5562321E-02
       3.4436162E-02
       3.4263008E-02
       3.4915762E-02
       3.4249435E-02
       3.7814689E-02
       3.7873400E-02
       4.2908780E-02
       3.7953969E-02
       3.6232125E-02
       4.0421248E-02
       3.9657683E-02
       4.0449603E-02
       3.9695428E-02
       3.8356605E-02
       4.1542038E-02
       3.3526020E-02
       4.1111023E-02
       4.2275721E-02
       3.6478906E-02
       3.2573932E-02
       4.2233440E-02
       4.1851320E-02
       4.0015384E-02
       4.0284625E-02
       4.0528867E-02
       3.3839241E-02
       4.1339620E-02
       3.6605724E-02
       4.0911029E-02
       3.5333365E-02
       4.1895306E-02
       4.0705910E-02
       4.1394463E-02
       4.1044335E-02
       4.1526314E-02
       4.0155487E-02
       4.2070578E-02
       3.8309658E-02
       4.1781323E-02
       3.7899312E-02
       3.7071627E-02
       4.1529531E-02
       4.2136083E-02
       3.8473161E-02
       3.7056218E-02
       1.8230965E-02
       4.2622725E-02
       1.5651622E-02
       4.3017703E-02
       3.8789422E-02
       4.2735222E-02
       3.5136671E-02
       3.4031719E-02
       4.2824079E-02
       4.3216370E-02
       4.3215925E-02
       4.3843038E-02
       4.2542522E-02
       4.2400525E-02
       3.7944967E-02
       3.6029004E-02
       3.7522401E-02
       3.5555130E-02
       3.4954904E-02
       4.0825715E-02
       3.6469316E-02
       3.7485172E-02
       3.4545441E-02
       3.5170518E-02
       3.6648026E-02
       4.4530574E-02
       3.9011389E-02
       4.1660884E-02
       3.6100090E-02
       4.1419726E-02
       3.6565669E-02
       3.5953444E-02
       3.4935473E-02
       3.4094548E-02
       3.5450673E-02
       3.5937363E-02
       3.6077465E-02
       3.5712286E-02
       3.5224768E-02
       3.5658429E-02
       3.4720162E-02
       3.5601262E-02
       3.3992987E-02
       3.3702460E-02
       3.4350466E-02
       3.3638898E-02
       3.4373933E-02
       3.5009217E-02
       3.4551697E-02
       3.3794587E-02
       3.3056643E-02
       3.2849546E-02
       3.2699174E-02
       3.1637517E-02
       3.3403587E-02
       3.3695929E-02
       3.7071858E-02
       3.9043807E-02
       3.8146918E-02
       3.8491145E-02
       3.9717382E-02
       4.0621642E-02
       4.0349356E-02
       4.0609693E-02
       4.0369765E-02
       3.9916607E-02
       4.0749791E-02
       4.0237379E-02
       4.1319488E-02
       4.0265041E-02
       4.1208615E-02
       4.0882479E-02
       4.1643833E-02
       4.0597822E-02
       4.0688954E-02
       4.0635323E-02
       3.9781033E-02
       4.1067883E-02
       4.0258543E-02
       4.0056387E-02
       4.0869471E-02
       4.0933663E-02