# vtk DataFile Version 3.0
# Solution du M1 TR
ASCII
DATASET UNSTRUCTURED_GRID
POINTS   3280  float
0.0000000E+00  0.0000000E+00  0.2682689E-01
0.2000000E+01  0.0000000E+00  0.1960168E+01
0.2000000E+01  0.1000000E+01  0.1960261E+01
0.0000000E+00  0.1000000E+01  0.2688591E-01
0.1000000E+01  0.0000000E+00  0.9909369E+00
0.1000000E+01  0.1000000E+01  0.9906828E+00
0.1500000E+01  0.5000000E+00  0.1496684E+01
0.1500000E+01  0.0000000E+00  0.1474268E+01
0.1723284E+01  0.3570951E+00  0.1706777E+01
0.1500000E+01  0.2500000E+00  0.1494895E+01
0.1515103E+01  0.2763186E+00  0.1509850E+01
0.1594866E+01  0.2826386E+00  0.1586071E+01
0.1562500E+01  0.1875000E+00  0.1553551E+01
0.1534357E+01  0.1819434E+00  0.1526057E+01
0.1561083E+01  0.3343258E+00  0.1554234E+01
0.1750000E+01  0.0000000E+00  0.1715663E+01
0.1503267E+01  0.1622339E+00  0.1495335E+01
0.1514910E+01  0.2261192E+00  0.1508807E+01
0.1610795E+01  0.1290247E+00  0.1595156E+01
0.1539062E+01  0.1536458E+00  0.1528843E+01
0.1510772E+01  0.1982718E+00  0.1503979E+01
0.1541862E+01  0.2179813E+00  0.1534494E+01
0.1475030E+01  0.2178147E+00  0.1470385E+01
0.1539206E+01  0.2578835E+00  0.1532613E+01
0.1521085E+01  0.2465697E+00  0.1515020E+01
0.1496499E+01  0.2146241E+00  0.1490808E+01
0.1481433E+01  0.1870688E+00  0.1475265E+01
0.1586261E+01  0.1960616E+00  0.1576187E+01
0.1460896E+01  0.2899333E+00  0.1458012E+01
0.1542195E+01  0.2867649E+00  0.1535815E+01
0.1486080E+01  0.2754813E+00  0.1481981E+01
0.1536278E+01  0.3247610E+00  0.1530573E+01
0.1510131E+01  0.3295675E+00  0.1505648E+01
0.1455545E+01  0.2514402E+00  0.1452365E+01
0.1610995E+01  0.1909452E+00  0.1599928E+01
0.1564462E+01  0.2395252E+00  0.1556557E+01
0.1571524E+01  0.3026484E+00  0.1563924E+01
0.1613657E+01  0.2555806E+00  0.1603811E+01
0.1633998E+01  0.2714643E+00  0.1623087E+01
0.1534973E+01  0.3650914E+00  0.1529254E+01
0.1583157E+01  0.2286349E+00  0.1574062E+01
0.1586501E+01  0.1581416E+00  0.1574783E+01
0.1651985E+01  0.2274641E+00  0.1639834E+01
0.1619170E+01  0.2936434E+00  0.1609119E+01
0.1678889E+01  0.2641389E+00  0.1665400E+01
0.1642286E+01  0.2930521E+00  0.1630914E+01
0.1526415E+01  0.3446283E+00  0.1521148E+01
0.1662420E+01  0.3044259E+00  0.1649952E+01
0.1636786E+01  0.2469276E+00  0.1625693E+01
0.1588953E+01  0.3366240E+00  0.1580747E+01
0.1616427E+01  0.3314099E+00  0.1606741E+01
0.1598305E+01  0.3102698E+00  0.1589429E+01
0.1655410E+01  0.2614708E+00  0.1643249E+01
0.1487553E+01  0.3072167E+00  0.1483771E+01
0.1520126E+01  0.3036443E+00  0.1514952E+01
0.1477894E+01  0.2544664E+00  0.1473938E+01
0.1567847E+01  0.2133479E+00  0.1559084E+01
0.1663947E+01  0.3299725E+00  0.1651652E+01
0.1567022E+01  0.2696000E+00  0.1559455E+01
0.1678598E+01  0.3509559E+00  0.1665196E+01
0.1611933E+01  0.3827205E+00  0.1602337E+01
0.1640491E+01  0.3197373E+00  0.1629452E+01
0.1588015E+01  0.2526666E+00  0.1579265E+01
0.1708471E+01  0.3144917E+00  0.1693058E+01
0.1606944E+01  0.3564315E+00  0.1597708E+01
0.1604614E+01  0.2314093E+00  0.1594672E+01
0.1643491E+01  0.3631133E+00  0.1632241E+01
0.2000000E+01  0.5000000E+00  0.1960465E+01
0.1494727E+01  0.3621796E+00  0.1490836E+01
0.1701807E+01  0.3477237E+00  0.1686738E+01
0.1572156E+01  0.3701847E+00  0.1564774E+01
0.1688392E+01  0.3285111E+00  0.1674492E+01
0.1695932E+01  0.3904821E+00  0.1681243E+01
0.1636337E+01  0.3418163E+00  0.1625644E+01
0.1505941E+01  0.9448485E-01  0.1487156E+01
0.1423727E+01  0.1910920E+00  0.1419822E+01
0.1481447E+01  0.3359634E+00  0.1478184E+01
0.1441613E+01  0.3726133E+00  0.1440144E+01
0.1466699E+01  0.3599060E+00  0.1464115E+01
0.1476682E+01  0.4107296E+00  0.1473841E+01
0.1434448E+01  0.3273535E+00  0.1433120E+01
0.1464523E+01  0.3867258E+00  0.1462202E+01
0.1456903E+01  0.3373583E+00  0.1454740E+01
0.1454188E+01  0.3132491E+00  0.1451839E+01
0.1424069E+01  0.2919612E+00  0.1422614E+01
0.1490969E+01  0.3884111E+00  0.1487435E+01
0.1428051E+01  0.4202828E+00  0.1427387E+01
0.1513790E+01  0.3782958E+00  0.1509113E+01
0.1547789E+01  0.4092466E+00  0.1541744E+01
0.1535154E+01  0.3889763E+00  0.1529555E+01
0.1512699E+01  0.4170463E+00  0.1508358E+01
0.1441554E+01  0.3983607E+00  0.1440257E+01
0.1395941E+01  0.3853832E+00  0.1396528E+01
0.1420578E+01  0.3854393E+00  0.1420078E+01
0.1408336E+01  0.3518173E+00  0.1408185E+01
0.1549967E+01  0.3074339E+00  0.1543516E+01
0.1651639E+01  0.4114272E+00  0.1640063E+01
0.1668616E+01  0.3788978E+00  0.1655816E+01
0.1674624E+01  0.4027285E+00  0.1661646E+01
0.1706988E+01  0.4343785E+00  0.1691928E+01
0.1673984E+01  0.4357547E+00  0.1661058E+01
0.1695270E+01  0.4139894E+00  0.1680975E+01
0.1737273E+01  0.4034108E+00  0.1719562E+01
0.1645630E+01  0.3875965E+00  0.1634388E+01
0.1625874E+01  0.4052508E+00  0.1615727E+01
0.1627808E+01  0.4540126E+00  0.1618069E+01
0.1587158E+01  0.4136289E+00  0.1579132E+01
0.1633718E+01  0.4293591E+00  0.1623491E+01
0.1651607E+01  0.4466828E+00  0.1640371E+01
0.1605650E+01  0.4356658E+00  0.1596887E+01
0.1682168E+01  0.4808869E+00  0.1668879E+01
0.1671711E+01  0.4594749E+00  0.1659337E+01
0.1698428E+01  0.4596870E+00  0.1684257E+01
0.1646221E+01  0.4851828E+00  0.1635385E+01
0.1607747E+01  0.4151289E+00  0.1598647E+01
0.1584205E+01  0.4841185E+00  0.1576739E+01
0.1747573E+01  0.4622079E+00  0.1729451E+01
0.1568396E+01  0.4481495E+00  0.1561516E+01
0.1601760E+01  0.4629165E+00  0.1593480E+01
0.1723356E+01  0.4540167E+00  0.1707209E+01
0.1732897E+01  0.4294241E+00  0.1715584E+01
0.1722218E+01  0.4972746E+00  0.1706253E+01
0.1715121E+01  0.4754441E+00  0.1699664E+01
0.1584567E+01  0.4345797E+00  0.1576912E+01
0.1563465E+01  0.4258523E+00  0.1556860E+01
0.1534166E+01  0.4440258E+00  0.1528911E+01
0.1615090E+01  0.4918227E+00  0.1606143E+01
0.1717469E+01  0.4134541E+00  0.1701448E+01
0.1718488E+01  0.3909170E+00  0.1702057E+01
0.1741353E+01  0.3769080E+00  0.1723234E+01
0.1781199E+01  0.4241746E+00  0.1759542E+01
0.2000000E+01  0.2500000E+00  0.1960342E+01
0.1756308E+01  0.4199875E+00  0.1737135E+01
0.1762447E+01  0.3937207E+00  0.1742619E+01
0.1765097E+01  0.4438197E+00  0.1745160E+01
0.1807974E+01  0.4625425E+00  0.1782284E+01
0.1789176E+01  0.4471344E+00  0.1766366E+01
0.1514158E+01  0.1287364E+00  0.1502446E+01
0.1777674E+01  0.4803377E+00  0.1756657E+01
0.1811145E+01  0.4395021E+00  0.1786121E+01
0.1850404E+01  0.4566449E+00  0.1819653E+01
0.1748483E+01  0.3522599E+00  0.1729794E+01
0.1731235E+01  0.3304535E+00  0.1714121E+01
0.1777870E+01  0.3654441E+00  0.1756853E+01
0.1748149E+01  0.2821176E+00  0.1729656E+01
0.1732875E+01  0.3039003E+00  0.1715629E+01
0.1708314E+01  0.2807181E+00  0.1693076E+01
0.1767650E+01  0.3193756E+00  0.1747536E+01
0.1372661E+01  0.1704076E+00  0.1369242E+01
0.1411157E+01  0.2494459E+00  0.1409702E+01
0.1448000E+01  0.2246098E+00  0.1444504E+01
0.1360382E+01  0.2278583E+00  0.1360288E+01
0.1433680E+01  0.2431125E+00  0.1431285E+01
0.1388814E+01  0.2314916E+00  0.1387728E+01
0.1314549E+01  0.2124991E+00  0.1315836E+01
0.1404157E+01  0.2007613E+00  0.1401675E+01
0.1415035E+01  0.1072182E+00  0.1404010E+01
0.1520299E+01  0.1091515E+00  0.1505229E+01
0.1459010E+01  0.1690672E+00  0.1452812E+01
0.1436337E+01  0.2690050E+00  0.1434168E+01
0.1443480E+01  0.1263360E+00  0.1434376E+01
0.1625000E+01  0.0000000E+00  0.1594689E+01
0.1414954E+01  0.2197329E+00  0.1412555E+01
0.1335299E+01  0.2266424E+00  0.1336067E+01
0.1396801E+01  0.1612344E+00  0.1391831E+01
0.1792033E+01  0.3934232E+00  0.1769558E+01
0.1541310E+01  0.1264947E+00  0.1528483E+01
0.1483859E+01  0.1256971E+00  0.1472305E+01
0.1500341E+01  0.1139400E+00  0.1486832E+01
0.1498380E+01  0.1421255E+00  0.1488213E+01
0.1478242E+01  0.1468909E+00  0.1469677E+01
0.1453147E+01  0.1972183E+00  0.1448578E+01
0.1348833E+01  0.2067866E+00  0.1348619E+01
0.1368157E+01  0.2800764E+00  0.1368767E+01
0.1250000E+01  0.0000000E+00  0.1232191E+01
0.1496272E+01  0.2780308E-01  0.1471653E+01
0.1430228E+01  0.1622338E+00  0.1424104E+01
0.1544491E+01  0.1012427E+00  0.1526907E+01
0.1505524E+01  0.5428530E-01  0.1482934E+01
0.1576405E+01  0.1180891E+00  0.1560670E+01
0.1526885E+01  0.8834234E-01  0.1506478E+01
0.1558557E+01  0.6358195E-01  0.1535298E+01
0.1372206E+01  0.9428859E-01  0.1359116E+01
0.1414069E+01  0.8636887E-01  0.1399012E+01
0.1351230E+01  0.1581055E+00  0.1347834E+01
0.1371634E+01  0.2528708E+00  0.1371740E+01
0.1392978E+01  0.2694234E+00  0.1392481E+01
0.1321668E+01  0.2603105E+00  0.1323828E+01
0.1392566E+01  0.3027057E+00  0.1392526E+01
0.1345601E+01  0.2495441E+00  0.1346599E+01
0.1349996E+01  0.1827855E+00  0.1348462E+01
0.1475238E+01  0.9618066E-01  0.1458737E+01
0.1487372E+01  0.4556180E+00  0.1484331E+01
0.1432024E+01  0.3509343E+00  0.1430849E+01
0.1619231E+01  0.5383449E+00  0.1610033E+01
0.1532505E+01  0.4233173E+00  0.1527273E+01
0.1547332E+01  0.4788657E+00  0.1541669E+01
0.1627786E+01  0.4750493E+00  0.1617910E+01
0.1750658E+01  0.4911384E+00  0.1732395E+01
0.1783313E+01  0.5336292E+00  0.1760946E+01
0.1744147E+01  0.5299352E+00  0.1726003E+01
0.1772978E+01  0.5077787E+00  0.1752022E+01
0.1739682E+01  0.5092411E+00  0.1722050E+01
0.1715917E+01  0.5251974E+00  0.1700299E+01
0.1809547E+01  0.4999146E+00  0.1783287E+01
0.1486188E+01  0.5335558E+00  0.1483218E+01
0.1695320E+01  0.5058771E+00  0.1681469E+01
0.1793562E+01  0.5145404E+00  0.1769581E+01
0.1827482E+01  0.5355643E+00  0.1798936E+01
0.1805457E+01  0.5332234E+00  0.1779986E+01
0.1812320E+01  0.5734372E+00  0.1786491E+01
0.1794794E+01  0.5557356E+00  0.1771155E+01
0.1637325E+01  0.5533192E+00  0.1627162E+01
0.1761146E+01  0.5591762E+00  0.1741393E+01
0.1789115E+01  0.5788851E+00  0.1765907E+01
0.1693317E+01  0.6123782E+00  0.1679573E+01
0.1522396E+01  0.5359490E+00  0.1517906E+01
0.1814654E+01  0.6254783E+00  0.1788183E+01
0.1726166E+01  0.5505978E+00  0.1709527E+01
0.1691322E+01  0.5307786E+00  0.1677870E+01
0.1516987E+01  0.5143680E+00  0.1512825E+01
0.1661909E+01  0.5147686E+00  0.1650184E+01
0.1761865E+01  0.6508066E+00  0.1741609E+01
0.1692174E+01  0.5698207E+00  0.1678665E+01
0.1780214E+01  0.6037461E+00  0.1758424E+01
[...]
POINT_DATA    3280
SCALARS hauteur float
LOOKUP_TABLE DEFAULT
       2.6826892E-02
       3.5245548E-05
       1.2821647E-04
       2.6885910E-02
       1.0870302E-02
       1.0616240E-02
       2.6584414E-02
       4.1681832E-03
       1.7844390E-02
       2.4795562E-02
       2.4948314E-02
       2.2996078E-02
       2.2196732E-02
       2.2285023E-02
       2.4268922E-02
       5.4606070E-04
       2.2032911E-02
       2.4094192E-02
       1.6469446E-02
       2.0458927E-02
       2.3321596E-02
       2.3366417E-02
       2.4757711E-02
       2.4089041E-02
       2.4255530E-02
       2.4139462E-02
       2.3362414E-02
       2.1544639E-02
       2.6236514E-02
       2.4360958E-02
       2.5523709E-02
       2.4918331E-02
       2.5619155E-02
       2.5834097E-02
       2.1045524E-02
       2.3279673E-02
       2.3726142E-02
       2.2319545E-02
       2.1660363E-02
       2.4878168E-02
       2.2462329E-02
       1.9905659E-02
       2.0778942E-02
       2.2224630E-02
       1.9977254E-02
       2.1364435E-02
       2.5159897E-02
       2.0670233E-02
       2.1533236E-02
       2.3467366E-02
       2.2535511E-02
       2.2984170E-02
       2.0836884E-02
       2.5870020E-02
       2.5127116E-02
       2.5504019E-02
       2.2489383E-02
       2.0873253E-02
       2.3668815E-02
       2.0057769E-02
       2.2535652E-02
       2.1661970E-02
       2.2904299E-02
       1.8643017E-02
       2.2796368E-02
       2.2043471E-02
       2.1510565E-02
       3.3214312E-04
       2.5903885E-02
       1.8853877E-02
       2.3957179E-02
       1.9754810E-02
       1.9116488E-02
       2.1924353E-02
       1.1233725E-02
       2.4473990E-02
       2.6267255E-02
       2.7267049E-02
       2.6652509E-02
       2.6593863E-02
       2.7265581E-02
       2.6871959E-02
       2.6877875E-02
       2.6637833E-02
       2.6931119E-02
       2.6186572E-02
       2.7802286E-02
       2.5498183E-02
       2.4807293E-02
       2.5001528E-02
       2.5812394E-02
       2.7437709E-02
       2.8412926E-02
       2.7816836E-02
       2.7922605E-02
       2.4445808E-02
       2.1347063E-02
       2.0461931E-02
       2.0402300E-02
       1.8965911E-02
       2.0442345E-02
       1.9498177E-02
       1.6919089E-02
       2.1560544E-02
       2.2262160E-02
       2.2709752E-02
       2.3611342E-02
       2.2338820E-02
       2.1685582E-02
       2.3243424E-02
       2.0241716E-02
       2.0949044E-02
       1.9684635E-02
       2.1978982E-02
       2.2947274E-02
       2.4112602E-02
       1.6713011E-02
       2.4383813E-02
       2.3647857E-02
       1.8205441E-02
       1.7229099E-02
       1.8364731E-02
       1.8731286E-02
       2.3930358E-02
       2.4559902E-02
       2.5326436E-02
       2.3247550E-02
       1.8213967E-02
       1.7823529E-02
       1.6591930E-02
       1.3847931E-02
       2.0915844E-04
       1.5836127E-02
       1.5303503E-02
       1.5247656E-02
       1.0349058E-02
       1.2855129E-02
       1.8469806E-02
       1.4418579E-02
       1.1078338E-02
       6.1346020E-03
       1.6164332E-02
       1.7394834E-02
       1.4422459E-02
       1.6353829E-02
       1.7295687E-02
       1.8815167E-02
       1.5121065E-02
       2.3943149E-02
       2.6674296E-02
       2.5367841E-02
       2.7022665E-02
       2.6183594E-02
       2.6598459E-02
       2.7490532E-02
       2.5507436E-02
       1.7181174E-02
       1.5234686E-02
       2.2885810E-02
       2.6462524E-02
       1.9670192E-02
       2.0806819E-03
       2.5805891E-02
       2.7384890E-02
       2.2873070E-02
       1.3246782E-02
       1.7896246E-02
       1.8023911E-02
       1.6397937E-02
       1.9700961E-02
       2.0901524E-02
       2.4397253E-02
       2.6673081E-02
       2.7881492E-02
       7.1081380E-03
       5.2074907E-03
       2.2385535E-02
       1.3202615E-02
       7.4206074E-03
       1.5688701E-02
       1.0029256E-02
       7.8085899E-03
       1.4262961E-02
       1.3130783E-02
       2.3538475E-02
       2.7447368E-02
       2.7270234E-02
       2.8505542E-02
       2.7718682E-02
       2.7820009E-02
       2.5375740E-02
       1.2905825E-02
       2.6607981E-02
       2.7369830E-02
       2.3078584E-02
       2.5316543E-02
       2.5180437E-02
       2.2571226E-02
       1.6633961E-02
       1.3180514E-02
       1.6622784E-02
       1.4385449E-02
       1.7045639E-02
       1.8586620E-02
       9.8109610E-03
       2.6654553E-02
       1.9942491E-02
       1.1770756E-02
       7.8825534E-03
       1.0517921E-02
       1.0296964E-02
       1.2138077E-02
       2.2474089E-02
       1.5352814E-02
       1.2455388E-02
       2.0009631E-02
       2.5856366E-02
       9.7013719E-03
       1.7769088E-02
       2.0261783E-02
       2.6076454E-02
       2.1402537E-02
       1.4863869E-02
       2.0221969E-02
       1.3695638E-02
       2.4689992E-02
       2.1266463E-02
       1.6164802E-02
       2.4188063E-02
       2.0060843E-02
       1.7152301E-02
       1.6304394E-02
       1.7853478E-02
       1.7379960E-02
       8.3543958E-03
       9.8282019E-03
       2.9757088E-04
       1.4453015E-02
       5.2492206E-03
       1.2983191E-02
       1.5162660E-02
       1.9724188E-02
       1.7632415E-02
       1.1780761E-02
       8.4505639E-03
       8.6207704E-03
       1.0757414E-02
       1.2108244E-02
       1.2200797E-02
       1.4459589E-02
       2.0394206E-02
       2.5891277E-02
       1.7577931E-02
       1.8965713E-02
       2.0986421E-02
       2.1292606E-02
       8.0429016E-03
       1.0689767E-02
       7.4315526E-03
       3.4699849E-03
       3.6236067E-03
       4.6959038E-03
       1.2374906E-02
       1.2782247E-02
       4.3171975E-03
       1.7120938E-02
       7.1265121E-03
       1.5830489E-02
       5.3245968E-03
       1.3803627E-03
       1.2446667E-02
       1.9463949E-02
       1.8278668E-02
       1.9811494E-02
       9.2277891E-03
       1.7604345E-02
       2.1379538E-02
       2.0967998E-02
       2.4890310E-02
       2.3535966E-02
       2.0699358E-02
       2.4458731E-02
       1.2391913E-02
       5.7110735E-03
       2.1104904E-02
       9.4401181E-03
       2.0155888E-02
       7.1499020E-03
       2.7240398E-02
       2.7527548E-02
       2.8140039E-02
       2.8579975E-02
       2.8749180E-02
       2.6384156E-02
       2.5883818E-02
       2.7140816E-02
       2.5655130E-02
       2.5822838E-02
       2.3923580E-02
       2.5291104E-02
       2.2236822E-02
       2.4988053E-02
       2.4541815E-02
       1.1709237E-02
       8.5259404E-03
       6.8948943E-03
       1.5031408E-02
       2.1219674E-02
       7.2827141E-03
       1.0872630E-02
       2.2464274E-02
       2.4057325E-02
       9.4870583E-03
       1.8813466E-02
       1.0541738E-02
       1.7891758E-02
       1.4903289E-02
       1.6216405E-02
       1.6774295E-02
       1.0688079E-02
       5.5636573E-03
       1.7187386E-04
       1.2417705E-02
       3.1124790E-03
       1.4880280E-02
       1.2726591E-02
       2.1221317E-02
       4.7916611E-04
       7.9894827E-03
       1.4273489E-02
       1.2649571E-02
       1.9446611E-02
       1.8654086E-02
       4.0054030E-03
       2.3380335E-02
       2.7484929E-03
       1.6327582E-02
       2.4913052E-02
       2.3732529E-03
       1.0620174E-03
       1.8843358E-02
       1.8250501E-02
       2.0221172E-02
       2.0456010E-02
       1.1558125E-02
       2.0075330E-02
       1.8773598E-02
       1.9941309E-02
       2.1309445E-02
       1.8551860E-02
       1.4124156E-02
       1.7059769E-02
       1.8696766E-02
       7.7886380E-04
       8.2333982E-03
       8.0942915E-03
       1.1015216E-02
       5.0936267E-03
       4.5699604E-03
       2.4230657E-03
       2.6086865E-03
       1.7673779E-03
       1.9125408E-02
       2.0372094E-02
       1.6085726E-02
       1.3396214E-02
       1.6851856E-02
       1.0737817E-02
       5.0319319E-03
       9.3312134E-03
       5.3398996E-03
       4.6860469E-03
       3.8469428E-03
       5.4104828E-03
       6.7013537E-03
       2.6814519E-02
       2.9632723E-02
       2.8146857E-02
       2.8644504E-02
       2.9474321E-02
       2.8249293E-02
       2.9033914E-02
       2.9926176E-02
       2.9651563E-02
       3.0673620E-02
       2.9193243E-02
       3.0214524E-02
       3.1191444E-02
       3.0626273E-02
       3.0367385E-02
       3.0444018E-02
       2.9603277E-02
       2.8391463E-02
       2.7959827E-02
       2.7818223E-02
       2.7761391E-02
       2.8666045E-02
       2.9262634E-02
       2.9347474E-02
       2.6251165E-02
       2.3517373E-02
       2.6476031E-02
       2.5207090E-02
       2.3777988E-02
       2.8687011E-02
       2.9653635E-02
       2.9357701E-02
       2.9070728E-02
       2.9080324E-02
       2.9538400E-02
       3.0573799E-02
       3.0145624E-02
       2.8904344E-02
       3.0004916E-02
       3.0415505E-02
       3.0699673E-02
       3.0132325E-02
       2.9279272E-02
       2.9510888E-02
       3.1764245E-02
       3.0020655E-02
       3.1683499E-02
       3.1180379E-02
       3.1184428E-02
       3.1243168E-02
       3.2240718E-02
       3.1697146E-02
       3.1598015E-02
       3.1048744E-02
       3.1594290E-02
       3.2598870E-02
       3.2041161E-02
       3.2407947E-02
       3.1246268E-02
       3.3481758E-02
       3.0997646E-02
       3.2809414E-02
       3.0097809E-02
       3.1914576E-02
       3.2983995E-02
       3.3638757E-02
       3.3523916E-02
       3.4622787E-02
       3.4101906E-02
       3.3677566E-02
       3.2619439E-02
       3.0683880E-02
       3.1448727E-02
       3.4069231E-02
       3.4101362E-02
       3.4324677E-02
       3.5249778E-02
       3.4919952E-02
       3.3360789E-02
       3.5079946E-02
       3.0276475E-02
       3.0981099E-02
       3.4640256E-02
       3.4453052E-02
       3.4228674E-02
       3.4838122E-02
       3.5253564E-02
       2.9553923E-02
       3.1009301E-02
       3.5966591E-02
       3.0472553E-02
       3.2013611E-02
       3.5483151E-02
       3.5924279E-02
       2.9493929E-02
       3.1620405E-02
       3.2239618E-02
       3.5502647E-02
       3.6210473E-02
       3.6020571E-02
       3.7154809E-02
       3.6852572E-02
       2.9958943E-02
       2.9503005E-02
       3.0149810E-02
       2.8414041E-02
       3.0238419E-02
       2.8968890E-02
       2.9115314E-02
       2.8809263E-02
       3.6682250E-02
       3.8444998E-02
       2.8372002E-02
       3.6482719E-02
       3.6996051E-02
       3.6934502E-02
       3.7700466E-02
       2.7813968E-02
       2.8606781E-02
       2.8175954E-02
       2.7490695E-02
       2.7922808E-02
       2.7940539E-02
       3.6708156E-02
       3.5962534E-02
       3.7440301E-02
       3.6728032E-02
       2.7422011E-02
       2.6999121E-02
       3.5454875E-02
       3.8358001E-02
       3.7581789E-02
       3.5438024E-02
       2.7136796E-02
       3.8707838E-02
       3.5965047E-02
       3.5127375E-02
       2.7651773E-02
       3.7790282E-02
       3.8577392E-02
       3.7204525E-02
       3.9942218E-02
       3.7046071E-02
       3.9568669E-02
       3.9206698E-02
       3.9093771E-02
       3.9343383E-02
       3.8907137E-02
       3.8120440E-02
       3.7838699E-02
       4.0435884E-02
       3.9773695E-02
       4.0935857E-02
       3.9743131E-02
       4.0152714E-02
       2.7167434E-02
       9.3325739E-03
       6.0125817E-03
       2.1964396E-03
       4.2109807E-03
       2.4543721E-03
       3.6668473E-03
       3.4053855E-03
       5.0567208E-03
       5.7144577E-03
       4.8502499E-03
       6.5918830E-03
       1.4652303E-04
       3.9329426E-04
       2.8898302E-03
       3.3428646E-03
       1.9743567E-03
       9.6694148E-04
       3.5099440E-03
       6.0452864E-04
       5.7287130E-04
       2.1793672E-03
       1.2397639E-03
       6.6995638E-04
       1.1693803E-03
       1.7267893E-04
       2.6507396E-02
       2.1687176E-02
       2.0714462E-02
       2.2670097E-02
       2.1382892E-02
       2.1921818E-02
       2.2757694E-02
       2.5543641E-02
       2.4480369E-02
       2.5067334E-02
       2.5679495E-02
       2.4594457E-02
       2.5073972E-02
       2.3844078E-02
       2.5179536E-02
       2.5794079E-02
       2.5408837E-02
       2.6357818E-02
       2.6878448E-02
       2.6335499E-02
       2.5539222E-02
       2.4345479E-02
       2.4975459E-02
       2.4272466E-02
       2.4834268E-02
       2.5459833E-02
       2.4917380E-02
       2.3982765E-02
       2.4755441E-02
       2.4366857E-02
       2.4373105E-02
       2.2992520E-02
       2.4515840E-02
       2.2686083E-02
       2.5479681E-02
       2.3681411E-02
       2.5300808E-02
       2.6038249E-02
       2.2737790E-02
       2.3285591E-02
       2.4104153E-02
       2.6065204E-02
       2.6659185E-02
       2.6190028E-02
       2.5310571E-02
       2.7168842E-02
       2.5882602E-02
       2.6114347E-02
       2.5776549E-02
       2.4829692E-02
       2.6654182E-02
       2.6575410E-02
       2.7429809E-02
       2.6627961E-02
       2.7051922E-02
       2.8068823E-02
       2.7552594E-02
       2.8302041E-02
       1.4544646E-02
       1.7002276E-02
       1.8688796E-02
       1.9503026E-02
       1.8619798E-02
       1.6044864E-02
       7.6240838E-03
       1.8441334E-03
       7.6438884E-03
       3.8489759E-03
       1.9237032E-02
       2.1951991E-02
       1.5531317E-02
       1.4169585E-02
       1.9844020E-02
       1.9932425E-02
       1.8685115E-02
       1.6635411E-02
       1.7239287E-02
       1.7897738E-02
       1.7663920E-02
       1.8990897E-02
       1.4379827E-02
       1.3958797E-02
       1.5962412E-02
       1.5589157E-02
       1.2950427E-02
       1.4309292E-02
       1.5227100E-02
       1.0130232E-02
       9.1828974E-03
       1.2528879E-02
       1.0139347E-02
       1.1958649E-02
       1.2192441E-02
       1.6976845E-02
       9.7902513E-03
       1.2357817E-02
       5.4365632E-03
       3.0257592E-03
       3.4650612E-03
       2.1823165E-03
       2.1357253E-02
       1.8478069E-02
       1.7986721E-02
       5.8484514E-03
       7.0442268E-03
       7.4351046E-03
       5.2803783E-03
       5.6662140E-03
       4.2656054E-03
       2.6556152E-02
       2.5722351E-02
       2.7472315E-02
       2.5706788E-02
       2.7597502E-02
       2.4050788E-02
       2.8770498E-02
       2.3599732E-02
       2.9873021E-02
       2.8631030E-02
       2.5685445E-02
       2.6966262E-02
       1.5829659E-02
       2.9529336E-02
       2.0758642E-02
       2.1041943E-02
       8.9765627E-03
       1.9659314E-02
       3.0496542E-02
       1.2947095E-02
       1.0284440E-02
       1.3233700E-02
       1.2986673E-02
       2.9138212E-02
       3.0551245E-02
       2.3055895E-02
       2.1748366E-02
       2.9890775E-02
       3.1886788E-02
       3.2153787E-02
       2.9768682E-02
       3.1638565E-02
       3.3324247E-02
       3.2987835E-02
       3.6351375E-02
       3.4801184E-02
       3.7711033E-02
       3.7979714E-02
       3.9245603E-02
       3.8177580E-02
       3.8897849E-02
       4.0577483E-02
       3.9827136E-02
       3.9564478E-02
       4.0478032E-02
       3.7086319E-02
       3.7226498E-02
       3.4953214E-02
       3.6120453E-02
       3.8527584E-02
       3.8815169E-02
       3.7635320E-02
       3.7228374E-02
       3.7775129E-02
       4.0569719E-02
       4.2211474E-02
       5.1641366E-03
       5.0919465E-04
       1.4837838E-03
       2.3757222E-04
       2.3155331E-02
       2.3722325E-02
       2.1914412E-02
       2.2681255E-02
       2.3304746E-02
       2.6415531E-02
       2.7553718E-02
       2.7306106E-02
       2.3672764E-02
       2.2875349E-02
       2.1527144E-02
       2.5945177E-02
       2.5470416E-02
       2.2154009E-02
       2.7375288E-02
       2.8884812E-02
       2.9562750E-03
       1.4218423E-03
       4.5034467E-03
       1.9082129E-03
       2.6859116E-03
       7.1307680E-03
       5.4256102E-04
       2.5127335E-03
       2.2905677E-04
       4.9309666E-04
       4.3845972E-04
       7.1454950E-04
       4.2426271E-04
       1.1685277E-03
       1.8731722E-04
       1.0478639E-02
       1.2249155E-02
       4.0581181E-03
       6.2147549E-03
       2.0820242E-02
       2.1067703E-02
       2.2324974E-02
       2.2105406E-02
       2.3065247E-02
       2.3604848E-02
       2.4034860E-02
       1.3928643E-02
       1.3276738E-02
       1.7115495E-02
       1.7275962E-02
       7.7129210E-03
       1.5000454E-02
       1.6047921E-02
       4.8379574E-03
       1.5406641E-02
       1.7409301E-02
       1.8731431E-02
       1.8199154E-02
       1.9896545E-02
       1.8172117E-02
       1.1040849E-03
       1.9779657E-02
       1.6424211E-02
       1.9628428E-02
       1.5701958E-02
       1.5513888E-02
       1.5491342E-02
       9.3211710E-03
       1.3051243E-02
       1.1298174E-02
       1.1891907E-02
       1.1049430E-02
       5.5926497E-03
       1.9889055E-03
       1.8360475E-02
       1.7795094E-02
       1.9878675E-02
       1.3980072E-02
       1.4259646E-02
       1.2904938E-02
       1.6086155E-02
       1.4944090E-02
       1.3867949E-02
       1.7729348E-02
       8.0741600E-03
       2.1057146E-03
       1.5667984E-03
       2.1099595E-02
       1.6443636E-02
       1.0813485E-02
       1.2943977E-02
       1.0136009E-02
       1.5288661E-02
       1.7690841E-02
       1.6477832E-02
       3.1301822E-02
       3.2614648E-02
       3.2667616E-02
       3.3021736E-02
       3.2869373E-02
       3.3392392E-02
       3.2362581E-02
       3.2308180E-02
       3.2996084E-02
       3.2374763E-02
       3.6428882E-02
       3.8394399E-02
       4.7859050E-02
       4.2856925E-02
       3.6491669E-02
       4.3047930E-02
       4.1440486E-02
       4.2693675E-02
       4.1847963E-02
       3.9547225E-02
       4.5094949E-02
       3.4232092E-02
       4.3835321E-02
       4.6469917E-02
       3.7463410E-02
       3.1410242E-02
       4.5943672E-02
       4.4888127E-02
       4.1385096E-02
       4.1460643E-02
       4.2221401E-02
       3.6500907E-02
       4.3347599E-02
       3.6391345E-02
       4.2602598E-02
       3.5676814E-02
       4.5604501E-02
       4.1947412E-02
       4.3996064E-02
       4.3132928E-02
       4.3949632E-02
       4.1920934E-02
       4.4901728E-02
       3.9862320E-02
       4.4301219E-02
       3.9613606E-02
       3.7563146E-02
       4.3568069E-02
       4.5282358E-02
       3.9371593E-02
       3.8448520E-02
       2.3251173E-02
       4.6766667E-02
       1.7222442E-02
       4.7637798E-02
       4.0850779E-02
       4.6569600E-02
       3.5172481E-02
       3.4160188E-02
       4.6902574E-02
       4.7657158E-02
       4.7750023E-02
       4.9384095E-02
       4.6378562E-02
       4.5832440E-02
       4.0180561E-02
       3.5900927E-02
       3.8751284E-02
       3.6223660E-02
       3.5851015E-02
       4.3007317E-02
       3.8601325E-02
       3.8346650E-02
       3.5048500E-02
       3.4184291E-02
       3.8314232E-02
       5.1215309E-02
       4.0629383E-02
       4.4813489E-02
       3.5401941E-02
       4.4625740E-02
       3.6089910E-02
       3.5536735E-02
       3.4475512E-02
       3.3308947E-02
       3.4645404E-02
       3.4743453E-02
       3.5185181E-02
       3.4635673E-02
       3.3942546E-02
       3.4302495E-02
       3.3570554E-02
       3.4140476E-02
       3.2937527E-02
       3.2368161E-02
       3.3048287E-02
       3.2441304E-02
       3.2947654E-02
       3.3585018E-02
       3.3033396E-02
       3.2278116E-02
       3.1601550E-02
       3.1478944E-02
       3.1429768E-02
       3.0422502E-02
       3.1840070E-02
       3.2261329E-02
       3.6197698E-02
       3.8399897E-02
       3.6915776E-02
       3.7809536E-02
       4.0376267E-02
       4.1500629E-02
       4.0931930E-02
       4.1477981E-02
       4.0969832E-02
       4.0172136E-02
       4.1747846E-02
       4.0744222E-02
       4.3102626E-02
       4.0983258E-02
       4.2772518E-02
       4.2108761E-02
       4.3790895E-02
       4.1569606E-02
       4.2144731E-02
       4.1810842E-02
       4.0564907E-02
       4.2771691E-02
       4.1246176E-02
       4.1544975E-02
       4.2082299E-02
       4.2337843E-02