# vtk DataFile Version 3.0
# Solution du M1 TR
ASCII
DATASET UNSTRUCTURED_GRID
POINTS   3280  float
0.0000000E+00  0.0000000E+00  0.1241448E-01
0.2000000E+01  0.0000000E+00  0.1960143E+01
0.2000000E+01  0.1000000E+01  0.1960167E+01
0.0000000E+00  0.1000000E+01  0.1245707E-01
0.1000000E+01  0.0000000E+00  0.9921837E+00
0.1000000E+01  0.1000000E+01  0.9916941E+00
0.1500000E+01  0.5000000E+00  0.1497643E+01
0.1500000E+01  0.0000000E+00  0.1474375E+01
0.1723284E+01  0.3570951E+00  0.1705957E+01
0.1500000E+01  0.2500000E+00  0.1495897E+01
0.1515103E+01  0.2763186E+00  0.1510640E+01
0.1594866E+01  0.2826386E+00  0.1585526E+01
0.1562500E+01  0.1875000E+00  0.1553387E+01
0.1534357E+01  0.1819434E+00  0.1526298E+01
0.1561083E+01  0.3343258E+00  0.1554341E+01
0.1750000E+01  0.0000000E+00  0.1715545E+01
0.1503267E+01  0.1622339E+00  0.1495982E+01
0.1514910E+01  0.2261192E+00  0.1509428E+01
0.1610795E+01  0.1290247E+00  0.1594597E+01
0.1539062E+01  0.1536458E+00  0.1528895E+01
0.1510772E+01  0.1982718E+00  0.1504582E+01
0.1541862E+01  0.2179813E+00  0.1534667E+01
0.1475030E+01  0.2178147E+00  0.1471806E+01
0.1539206E+01  0.2578835E+00  0.1532843E+01
0.1521085E+01  0.2465697E+00  0.1515530E+01
0.1496499E+01  0.2146241E+00  0.1491739E+01
0.1481433E+01  0.1870688E+00  0.1476338E+01
0.1586261E+01  0.1960616E+00  0.1575637E+01
0.1460896E+01  0.2899333E+00  0.1459944E+01
0.1542195E+01  0.2867649E+00  0.1536074E+01
0.1486080E+01  0.2754813E+00  0.1483315E+01
0.1536278E+01  0.3247610E+00  0.1531121E+01
0.1510131E+01  0.3295675E+00  0.1506721E+01
0.1455545E+01  0.2514402E+00  0.1454309E+01
0.1610995E+01  0.1909452E+00  0.1599117E+01
0.1564462E+01  0.2395252E+00  0.1556399E+01
0.1571524E+01  0.3026484E+00  0.1563734E+01
0.1613657E+01  0.2555806E+00  0.1603014E+01
0.1633998E+01  0.2714643E+00  0.1622076E+01
0.1534973E+01  0.3650914E+00  0.1529652E+01
0.1583157E+01  0.2286349E+00  0.1573574E+01
0.1586501E+01  0.1581416E+00  0.1574348E+01
0.1651985E+01  0.2274641E+00  0.1638711E+01
0.1619170E+01  0.2936434E+00  0.1608268E+01
0.1678889E+01  0.2641389E+00  0.1664205E+01
0.1642286E+01  0.2930521E+00  0.1629848E+01
0.1526415E+01  0.3446283E+00  0.1521813E+01
0.1662420E+01  0.3044259E+00  0.1648822E+01
0.1636786E+01  0.2469276E+00  0.1624687E+01
0.1588953E+01  0.3366240E+00  0.1580408E+01
0.1616427E+01  0.3314099E+00  0.1606017E+01
0.1598305E+01  0.3102698E+00  0.1588862E+01
0.1655410E+01  0.2614708E+00  0.1642100E+01
0.1487553E+01  0.3072167E+00  0.1485173E+01
0.1520126E+01  0.3036443E+00  0.1515713E+01
0.1477894E+01  0.2544664E+00  0.1475460E+01
0.1567847E+01  0.2133479E+00  0.1558791E+01
0.1663947E+01  0.3299725E+00  0.1650600E+01
0.1567022E+01  0.2696000E+00  0.1559301E+01
0.1678598E+01  0.3509559E+00  0.1664137E+01
0.1611933E+01  0.3827205E+00  0.1601579E+01
0.1640491E+01  0.3197373E+00  0.1628483E+01
0.1588015E+01  0.2526666E+00  0.1578765E+01
0.1708471E+01  0.3144917E+00  0.1692021E+01
0.1606944E+01  0.3564315E+00  0.1597100E+01
0.1604614E+01  0.2314093E+00  0.1593932E+01
0.1643491E+01  0.3631133E+00  0.1631326E+01
0.2000000E+01  0.5000000E+00  0.1960390E+01
0.1494727E+01  0.3621796E+00  0.1492073E+01
0.1701807E+01  0.3477237E+00  0.1685755E+01
0.1572156E+01  0.3701847E+00  0.1564628E+01
0.1688392E+01  0.3285111E+00  0.1673386E+01
0.1695932E+01  0.3904821E+00  0.1680229E+01
0.1636337E+01  0.3418163E+00  0.1624778E+01
0.1505941E+01  0.9448485E-01  0.1487586E+01
0.1423727E+01  0.1910920E+00  0.1422035E+01
0.1481447E+01  0.3359634E+00  0.1479828E+01
0.1441613E+01  0.3726133E+00  0.1442617E+01
0.1466699E+01  0.3599060E+00  0.1466040E+01
0.1476682E+01  0.4107296E+00  0.1475465E+01
0.1434448E+01  0.3273535E+00  0.1435834E+01
0.1464523E+01  0.3867258E+00  0.1464214E+01
0.1456903E+01  0.3373583E+00  0.1456972E+01
0.1454188E+01  0.3132491E+00  0.1453957E+01
0.1424069E+01  0.2919612E+00  0.1425212E+01
0.1490969E+01  0.3884111E+00  0.1488811E+01
0.1428051E+01  0.4202828E+00  0.1430241E+01
0.1513790E+01  0.3782958E+00  0.1509925E+01
0.1547789E+01  0.4092466E+00  0.1541851E+01
0.1535154E+01  0.3889763E+00  0.1529914E+01
0.1512699E+01  0.4170463E+00  0.1509236E+01
0.1441554E+01  0.3983607E+00  0.1442812E+01
0.1395941E+01  0.3853832E+00  0.1400302E+01
0.1420578E+01  0.3854393E+00  0.1423142E+01
0.1408336E+01  0.3518173E+00  0.1411537E+01
0.1549967E+01  0.3074339E+00  0.1543766E+01
0.1651639E+01  0.4114272E+00  0.1638948E+01
0.1668616E+01  0.3788978E+00  0.1654778E+01
0.1674624E+01  0.4027285E+00  0.1660542E+01
0.1706988E+01  0.4343785E+00  0.1690789E+01
0.1673984E+01  0.4357547E+00  0.1659823E+01
0.1695270E+01  0.4139894E+00  0.1679841E+01
0.1737273E+01  0.4034108E+00  0.1718948E+01
0.1645630E+01  0.3875965E+00  0.1633429E+01
0.1625874E+01  0.4052508E+00  0.1614797E+01
0.1627808E+01  0.4540126E+00  0.1616953E+01
0.1587158E+01  0.4136289E+00  0.1578605E+01
0.1633718E+01  0.4293591E+00  0.1622412E+01
0.1651607E+01  0.4466828E+00  0.1639074E+01
0.1605650E+01  0.4356658E+00  0.1596044E+01
0.1682168E+01  0.4808869E+00  0.1667472E+01
0.1671711E+01  0.4594749E+00  0.1657941E+01
0.1698428E+01  0.4596870E+00  0.1682974E+01
0.1646221E+01  0.4851828E+00  0.1633954E+01
0.1607747E+01  0.4151289E+00  0.1597866E+01
0.1584205E+01  0.4841185E+00  0.1575925E+01
0.1747573E+01  0.4622079E+00  0.1728795E+01
0.1568396E+01  0.4481495E+00  0.1561091E+01
0.1601760E+01  0.4629165E+00  0.1592638E+01
0.1723356E+01  0.4540167E+00  0.1706155E+01
0.1732897E+01  0.4294241E+00  0.1714821E+01
0.1722218E+01  0.4972746E+00  0.1705160E+01
0.1715121E+01  0.4754441E+00  0.1698518E+01
0.1584567E+01  0.4345797E+00  0.1576348E+01
0.1563465E+01  0.4258523E+00  0.1556702E+01
0.1534166E+01  0.4440258E+00  0.1529132E+01
0.1615090E+01  0.4918227E+00  0.1604949E+01
0.1717469E+01  0.4134541E+00  0.1700496E+01
0.1718488E+01  0.3909170E+00  0.1701242E+01
0.1741353E+01  0.3769080E+00  0.1722704E+01
0.1781199E+01  0.4241746E+00  0.1759836E+01
0.2000000E+01  0.2500000E+00  0.1960268E+01
0.1756308E+01  0.4199875E+00  0.1736806E+01
0.1762447E+01  0.3937207E+00  0.1742432E+01
0.1765097E+01  0.4438197E+00  0.1744970E+01
0.1807974E+01  0.4625425E+00  0.1784173E+01
0.1789176E+01  0.4471344E+00  0.1767107E+01
0.1514158E+01  0.1287364E+00  0.1502814E+01
0.1777674E+01  0.4803377E+00  0.1756796E+01
0.1811145E+01  0.4395021E+00  0.1787532E+01
0.1850404E+01  0.4566449E+00  0.1822646E+01
0.1748483E+01  0.3522599E+00  0.1729298E+01
0.1731235E+01  0.3304535E+00  0.1713342E+01
0.1777870E+01  0.3654441E+00  0.1756866E+01
0.1748149E+01  0.2821176E+00  0.1728962E+01
0.1732875E+01  0.3039003E+00  0.1714789E+01
0.1708314E+01  0.2807181E+00  0.1691942E+01
0.1767650E+01  0.3193756E+00  0.1747258E+01
0.1372661E+01  0.1704076E+00  0.1372289E+01
0.1411157E+01  0.2494459E+00  0.1412674E+01
0.1448000E+01  0.2246098E+00  0.1446555E+01
0.1360382E+01  0.2278583E+00  0.1364197E+01
0.1433680E+01  0.2431125E+00  0.1433738E+01
0.1388814E+01  0.2314916E+00  0.1391058E+01
0.1314549E+01  0.2124991E+00  0.1320643E+01
0.1404157E+01  0.2007613E+00  0.1404528E+01
0.1415035E+01  0.1072182E+00  0.1405818E+01
0.1520299E+01  0.1091515E+00  0.1505488E+01
0.1459010E+01  0.1690672E+00  0.1454306E+01
0.1436337E+01  0.2690050E+00  0.1436520E+01
0.1443480E+01  0.1263360E+00  0.1435967E+01
0.1625000E+01  0.0000000E+00  0.1594318E+01
0.1414954E+01  0.2197329E+00  0.1415196E+01
0.1335299E+01  0.2266424E+00  0.1340478E+01
0.1396801E+01  0.1612344E+00  0.1394279E+01
0.1792033E+01  0.3934232E+00  0.1769956E+01
0.1541310E+01  0.1264947E+00  0.1528571E+01
0.1483859E+01  0.1256971E+00  0.1473075E+01
0.1500341E+01  0.1139400E+00  0.1487375E+01
0.1498380E+01  0.1421255E+00  0.1488804E+01
0.1478242E+01  0.1468909E+00  0.1470665E+01
0.1453147E+01  0.1972183E+00  0.1450245E+01
0.1348833E+01  0.2067866E+00  0.1352592E+01
0.1368157E+01  0.2800764E+00  0.1372809E+01
0.1250000E+01  0.0000000E+00  0.1234780E+01
0.1496272E+01  0.2780308E-01  0.1471905E+01
0.1430228E+01  0.1622338E+00  0.1426008E+01
0.1544491E+01  0.1012427E+00  0.1526922E+01
0.1505524E+01  0.5428530E-01  0.1483214E+01
0.1576405E+01  0.1180891E+00  0.1560444E+01
0.1526885E+01  0.8834234E-01  0.1506669E+01
0.1558557E+01  0.6358195E-01  0.1535228E+01
0.1372206E+01  0.9428859E-01  0.1361526E+01
0.1414069E+01  0.8636887E-01  0.1400738E+01
0.1351230E+01  0.1581055E+00  0.1351220E+01
0.1371634E+01  0.2528708E+00  0.1375662E+01
0.1392978E+01  0.2694234E+00  0.1395904E+01
0.1321668E+01  0.2603105E+00  0.1328928E+01
0.1392566E+01  0.3027057E+00  0.1396107E+01
0.1345601E+01  0.2495441E+00  0.1351063E+01
0.1349996E+01  0.1827855E+00  0.1352134E+01
0.1475238E+01  0.9618066E-01  0.1459525E+01
0.1487372E+01  0.4556180E+00  0.1485685E+01
0.1432024E+01  0.3509343E+00  0.1433535E+01
0.1619231E+01  0.5383449E+00  0.1608538E+01
0.1532505E+01  0.4233173E+00  0.1527646E+01
0.1547332E+01  0.4788657E+00  0.1541512E+01
0.1627786E+01  0.4750493E+00  0.1616644E+01
0.1750658E+01  0.4911384E+00  0.1731821E+01
0.1783313E+01  0.5336292E+00  0.1761983E+01
0.1744147E+01  0.5299352E+00  0.1725532E+01
0.1772978E+01  0.5077787E+00  0.1752383E+01
0.1739682E+01  0.5092411E+00  0.1721383E+01
0.1715917E+01  0.5251974E+00  0.1699127E+01
0.1809547E+01  0.4999146E+00  0.1785715E+01
0.1486188E+01  0.5335558E+00  0.1484153E+01
0.1695320E+01  0.5058771E+00  0.1680041E+01
0.1793562E+01  0.5145404E+00  0.1771218E+01
0.1827482E+01  0.5355643E+00  0.1802032E+01
0.1805457E+01  0.5332234E+00  0.1782235E+01
0.1812320E+01  0.5734372E+00  0.1788765E+01
0.1794794E+01  0.5557356E+00  0.1772688E+01
0.1637325E+01  0.5533192E+00  0.1625564E+01
0.1761146E+01  0.5591762E+00  0.1741514E+01
0.1789115E+01  0.5788851E+00  0.1767267E+01
0.1693317E+01  0.6123782E+00  0.1678122E+01
0.1522396E+01  0.5359490E+00  0.1518011E+01
0.1814654E+01  0.6254783E+00  0.1790585E+01
0.1726166E+01  0.5505978E+00  0.1708675E+01
0.1691322E+01  0.5307786E+00  0.1676350E+01
0.1516987E+01  0.5143680E+00  0.1513206E+01
0.1661909E+01  0.5147686E+00  0.1648618E+01
0.1761865E+01  0.6508066E+00  0.1741892E+01
0.1692174E+01  0.5698207E+00  0.1677131E+01
0.1780214E+01  0.6037461E+00  0.1759214E+01
[...]
POINT_DATA    3280
SCALARS hauteur float
LOOKUP_TABLE DEFAULT
       1.2414479E-02
       9.9086388E-06
       3.3981635E-05
       1.2457074E-02
       1.2117098E-02
       1.1627498E-02
       2.7543349E-02
       4.2753363E-03
       1.7024232E-02
       2.5797443E-02
       2.5737955E-02
       2.2451123E-02
       2.2033002E-02
       2.2525391E-02
       2.4375564E-02
       4.2857717E-04
       2.2679846E-02
       2.4714874E-02
       1.5910714E-02
       2.0510965E-02
       2.3925146E-02
       2.3539866E-02
       2.6178189E-02
       2.4318813E-02
       2.4765491E-02
       2.5069679E-02
       2.4435761E-02
       2.0995243E-02
       2.8168246E-02
       2.4620644E-02
       2.6857698E-02
       2.5466577E-02
       2.6692810E-02
       2.7778094E-02
       2.0234671E-02
       2.3121303E-02
       2.3535920E-02
       2.1522401E-02
       2.0648699E-02
       2.5275582E-02
       2.1974157E-02
       1.9471462E-02
       1.9655338E-02
       2.1373708E-02
       1.8782377E-02
       2.0298010E-02
       2.5824998E-02
       1.9539658E-02
       2.0527814E-02
       2.3128139E-02
       2.1811708E-02
       2.2417086E-02
       1.9687679E-02
       2.7271767E-02
       2.5887915E-02
       2.7025503E-02
       2.2196134E-02
       1.9821122E-02
       2.3514455E-02
       1.8998896E-02
       2.1776795E-02
       2.0692766E-02
       2.2404569E-02
       1.7605977E-02
       2.2188094E-02
       2.1303256E-02
       2.0595113E-02
       2.5711520E-04
       2.7141116E-02
       1.7870926E-02
       2.3811214E-02
       1.8649308E-02
       1.8102351E-02
       2.1058475E-02
       1.1663771E-02
       2.6687431E-02
       2.7910732E-02
       2.9740172E-02
       2.8577925E-02
       2.8217741E-02
       2.9979640E-02
       2.8884284E-02
       2.9109398E-02
       2.8755893E-02
       2.9529796E-02
       2.7562048E-02
       3.0656554E-02
       2.6309960E-02
       2.4914757E-02
       2.5360779E-02
       2.6690864E-02
       2.9992832E-02
       3.2186761E-02
       3.0881209E-02
       3.1274377E-02
       2.4695820E-02
       2.0231773E-02
       1.9423160E-02
       1.9298665E-02
       1.7827023E-02
       1.9207138E-02
       1.8363990E-02
       1.6305001E-02
       2.0602444E-02
       2.1332214E-02
       2.1592999E-02
       2.3084215E-02
       2.1259681E-02
       2.0388565E-02
       2.2399952E-02
       1.8834992E-02
       1.9552080E-02
       1.8401980E-02
       2.0548108E-02
       2.2166457E-02
       2.3298926E-02
       1.6057551E-02
       2.3957859E-02
       2.2806541E-02
       1.7152060E-02
       1.6466315E-02
       1.7271806E-02
       1.7585757E-02
       2.3366546E-02
       2.4402087E-02
       2.5547515E-02
       2.2052855E-02
       1.7262439E-02
       1.7008746E-02
       1.6062010E-02
       1.4141469E-02
       1.3460266E-04
       1.5506823E-02
       1.5116274E-02
       1.5057452E-02
       1.2238481E-02
       1.3595875E-02
       1.8838255E-02
       1.4557810E-02
       1.2489058E-02
       9.1271360E-03
       1.5668150E-02
       1.6616751E-02
       1.4434896E-02
       1.5660124E-02
       1.6455810E-02
       1.7680423E-02
       1.4843811E-02
       2.6989416E-02
       2.9646119E-02
       2.7417989E-02
       3.0932329E-02
       2.8636072E-02
       2.9928141E-02
       3.2298007E-02
       2.8360713E-02
       1.8989199E-02
       1.5493568E-02
       2.4379594E-02
       2.8814279E-02
       2.1260790E-02
       1.7093291E-03
       2.8447503E-02
       3.1795725E-02
       2.5320368E-02
       1.3645139E-02
       1.7984690E-02
       1.8793783E-02
       1.6941217E-02
       2.0292031E-02
       2.1889119E-02
       2.6064014E-02
       3.0645944E-02
       3.1923479E-02
       9.6972476E-03
       5.4595757E-03
       2.4289525E-02
       1.3217942E-02
       7.7000361E-03
       1.5461902E-02
       1.0220088E-02
       7.7386101E-03
       1.6672828E-02
       1.4856692E-02
       2.6924120E-02
       3.1369409E-02
       3.0692371E-02
       3.3605591E-02
       3.1299925E-02
       3.2284392E-02
       2.9047461E-02
       1.3693821E-02
       2.7961990E-02
       3.0055780E-02
       2.1584225E-02
       2.5689739E-02
       2.5023694E-02
       2.1305097E-02
       1.6059738E-02
       1.4218009E-02
       1.6151798E-02
       1.4746907E-02
       1.6379240E-02
       1.7414764E-02
       1.2238874E-02
       2.7590193E-02
       1.8514545E-02
       1.3407460E-02
       1.0978372E-02
       1.2766214E-02
       1.2570994E-02
       1.3670901E-02
       2.0876494E-02
       1.5473371E-02
       1.3815665E-02
       1.8558866E-02
       2.5961763E-02
       1.2103855E-02
       1.6917239E-02
       1.8741933E-02
       2.6457527E-02
       1.9836072E-02
       1.5146849E-02
       1.8687486E-02
       1.4486234E-02
       2.4088518E-02
       1.9647477E-02
       1.5885440E-02
       2.3214236E-02
       1.8870208E-02
       1.6478519E-02
       1.5957339E-02
       1.7027898E-02
       1.6699811E-02
       1.0925346E-02
       1.1532740E-02
       2.0094228E-04
       1.4636745E-02
       8.0161494E-03
       1.4011781E-02
       1.5325484E-02
       1.8573637E-02
       1.6580283E-02
       1.2762286E-02
       1.0369165E-02
       1.0611890E-02
       1.1978352E-02
       1.2799212E-02
       1.2866650E-02
       1.4404636E-02
       2.0710159E-02
       2.9297230E-02
       1.7130375E-02
       1.8774079E-02
       2.0783067E-02
       2.4040352E-02
       7.6899533E-03
       1.0513118E-02
       7.1705631E-03
       3.2301825E-03
       3.3230204E-03
       4.4335134E-03
       1.2001192E-02
       1.2282063E-02
       4.0261877E-03
       1.6242952E-02
       6.7506104E-03
       1.5154385E-02
       4.9959749E-03
       1.0836251E-03
       1.1871871E-02
       1.8577493E-02
       1.7531065E-02
       1.9141271E-02
       9.7798119E-03
       1.8689189E-02
       2.4648725E-02
       2.2358406E-02
       2.9225545E-02
       2.7319974E-02
       2.4544053E-02
       2.7218030E-02
       1.3758082E-02
       7.2338280E-03
       2.3148223E-02
       1.0343082E-02
       2.2427332E-02
       7.6791400E-03
       3.0321647E-02
       3.0671520E-02
       3.1976168E-02
       3.2693136E-02
       3.3419064E-02
       2.7674023E-02
       2.6587945E-02
       2.9156834E-02
       2.5972555E-02
       2.6122589E-02
       2.2670924E-02
       2.5065931E-02
       2.0642145E-02
       2.4873485E-02
       2.4052560E-02
       1.3091500E-02
       1.1270308E-02
       1.0066895E-02
       1.5227264E-02
       1.9705696E-02
       1.0136773E-02
       1.2864721E-02
       2.0963290E-02
       2.2901330E-02
       1.1577249E-02
       1.7710985E-02
       1.2426711E-02
       1.6975673E-02
       1.5139393E-02
       1.5919713E-02
       1.6285219E-02
       1.2658370E-02
       8.2635761E-03
       1.4096373E-04
       1.3553491E-02
       5.1432708E-03
       1.5025766E-02
       1.3945467E-02
       1.9794356E-02
       3.1031347E-04
       1.0919770E-02
       1.4678565E-02
       1.3560645E-02
       1.8300223E-02
       1.7529971E-02
       3.8782116E-03
       2.2038956E-02
       4.6790081E-03
       1.5896109E-02
       2.4281043E-02
       4.1080283E-03
       1.6481876E-03
       1.7853133E-02
       1.7388718E-02
       1.8905283E-02
       1.9014586E-02
       1.2424614E-02
       1.9060061E-02
       1.7833557E-02
       1.8844881E-02
       2.0255488E-02
       1.7621986E-02
       1.4322601E-02
       1.6298409E-02
       1.7515110E-02
       1.1296804E-03
       1.0701493E-02
       1.0111552E-02
       1.2167939E-02
       4.8072076E-03
       4.5081178E-03
       2.0658904E-03
       2.2536547E-03
       1.4302853E-03
       1.7981023E-02
       1.9349324E-02
       1.7461595E-02
       1.4518449E-02
       1.9064682E-02
       1.2601806E-02
       5.7965992E-03
       1.0631925E-02
       6.4560839E-03
       5.0458221E-03
       3.7630132E-03
       5.5031882E-03
       6.7782780E-03
       2.9612246E-02
       3.4704761E-02
       3.2291501E-02
       3.3407527E-02
       3.4918001E-02
       3.2871622E-02
       3.4346439E-02
       3.6170516E-02
       3.5494064E-02
       3.7218804E-02
       3.4920158E-02
       3.6510307E-02
       3.8293004E-02
       3.7324402E-02
       3.7083642E-02
       3.7133139E-02
       3.5819061E-02
       3.3695645E-02
       3.2793551E-02
       3.3455459E-02
       3.3015511E-02
       3.4402341E-02
       3.5612478E-02
       3.5602074E-02
       3.1180341E-02
       2.8285730E-02
       3.1108053E-02
       2.9217539E-02
       2.8273227E-02
       3.3140428E-02
       3.5091869E-02
       3.4550108E-02
       3.3847105E-02
       3.3634730E-02
       3.4729313E-02
       3.6869358E-02
       3.6042539E-02
       3.3042879E-02
       3.5666943E-02
       3.6464080E-02
       3.7158417E-02
       3.6079268E-02
       3.3881744E-02
       3.4318590E-02
       3.9065431E-02
       3.6031934E-02
       3.8962390E-02
       3.8026721E-02
       3.8091330E-02
       3.8298403E-02
       3.9902949E-02
       3.9080517E-02
       3.8913493E-02
       3.7743389E-02
       3.8784017E-02
       4.0444411E-02
       3.9588129E-02
       4.0182329E-02
       3.7958085E-02
       4.1555002E-02
       3.7530237E-02
       4.0698279E-02
       3.5500908E-02
       3.9315149E-02
       4.0978760E-02
       4.1731712E-02
       4.1633393E-02
       4.2666694E-02
       4.2203699E-02
       4.1502740E-02
       4.0376390E-02
       3.6809897E-02
       3.8461920E-02
       4.2181316E-02
       4.2220253E-02
       4.2406282E-02
       4.3227214E-02
       4.2938926E-02
       4.1291187E-02
       4.2831895E-02
       3.6021491E-02
       3.7390302E-02
       4.2732615E-02
       4.2537855E-02
       4.2184058E-02
       4.2756580E-02
       4.3109804E-02
       3.4319603E-02
       3.7483098E-02
       4.3608997E-02
       3.6322212E-02
       3.9375895E-02
       4.3315799E-02
       4.3496078E-02
       3.4044110E-02
       3.8683806E-02
       3.9777333E-02
       4.3175334E-02
       4.3381173E-02
       4.3420259E-02
       4.3963391E-02
       4.3709149E-02
       3.5119483E-02
       3.4140309E-02
       3.5497071E-02
       3.1752241E-02
       3.5724000E-02
       3.3039462E-02
       3.3414317E-02
       3.2579771E-02
       4.3865240E-02
       4.4096021E-02
       3.1812343E-02
       4.3706410E-02
       4.4043135E-02
       4.3183417E-02
       4.4015979E-02
       3.0471324E-02
       3.2270514E-02
       3.1246126E-02
       2.9501982E-02
       3.0539171E-02
       3.0476722E-02
       4.3928563E-02
       4.3632943E-02
       4.4117813E-02
       4.3424119E-02
       2.9516022E-02
       2.8509689E-02
       4.3362291E-02
       4.4239206E-02
       4.3696403E-02
       4.2389944E-02
       2.8675056E-02
       4.3561500E-02
       4.3000473E-02
       4.2568767E-02
       2.9851470E-02
       4.3384175E-02
       4.3841258E-02
       4.2306095E-02
       4.4300300E-02
       4.2751106E-02
       4.4008323E-02
       4.4163926E-02
       4.4294392E-02
       4.4472607E-02
       4.4383692E-02
       4.4276728E-02
       4.4253969E-02
       4.4525448E-02
       4.4420206E-02
       4.4442273E-02
       4.4493375E-02
       4.4533066E-02
       2.9377261E-02
       1.2034666E-02
       9.2069351E-03
       3.7641955E-03
       7.0004280E-03
       4.1884560E-03
       6.1026716E-03
       5.7810028E-03
       7.6441433E-03
       8.0569774E-03
       7.0960230E-03
       8.8120180E-03
       8.2826399E-05
       4.8864570E-04
       4.6552473E-03
       5.1640549E-03
       3.1236045E-03
       1.4918492E-03
       5.4874020E-03
       8.2779956E-04
       8.1019535E-04
       3.5158556E-03
       1.8692318E-03
       9.3326295E-04
       1.7708108E-03
       1.3180340E-04
       2.7221107E-02
       2.0060198E-02
       1.9171971E-02
       2.1127011E-02
       1.9840911E-02
       2.0343852E-02
       2.1336140E-02
       2.5429031E-02
       2.3484941E-02
       2.4567138E-02
       2.5617880E-02
       2.3700104E-02
       2.4502004E-02
       2.2655011E-02
       2.4709009E-02
       2.5878582E-02
       2.5370968E-02
       2.6899155E-02
       2.7929235E-02
       2.6971173E-02
       2.5487594E-02
       2.3592714E-02
       2.4545606E-02
       2.3811526E-02
       2.4518305E-02
       2.5892881E-02
       2.4881801E-02
       2.3798178E-02
       2.4876435E-02
       2.4135427E-02
       2.4937324E-02
       2.2198264E-02
       2.4804918E-02
       2.2482617E-02
       2.6467245E-02
       2.3703201E-02
       2.5873238E-02
       2.7052661E-02
       2.3220987E-02
       2.3587402E-02
       2.5109266E-02
       2.6804078E-02
       2.8764941E-02
       2.7649165E-02
       2.6708289E-02
       2.9197907E-02
       2.7461320E-02
       2.8569484E-02
       2.7662219E-02
       2.6395866E-02
       2.8327613E-02
       2.7893877E-02
       2.9355171E-02
       2.7699615E-02
       2.8709664E-02
       3.1117314E-02
       2.9866673E-02
       3.1275610E-02
       1.4959179E-02
       1.6425179E-02
       1.7507312E-02
       1.8093707E-02
       1.7453377E-02
       1.5776405E-02
       1.0280648E-02
       3.0147369E-03
       1.0044354E-02
       6.5741260E-03
       1.7939466E-02
       2.0739380E-02
       1.5221157E-02
       1.4240210E-02
       1.8625172E-02
       1.8752770E-02
       1.7494736E-02
       1.5734610E-02
       1.6250498E-02
       1.6813459E-02
       1.6639897E-02
       1.7952572E-02
       1.3697400E-02
       1.3765901E-02
       1.5252851E-02
       1.4920164E-02
       1.2674798E-02
       1.3886096E-02
       1.4548726E-02
       1.1012402E-02
       9.0695383E-03
       1.2623813E-02
       1.1586585E-02
       1.2562688E-02
       1.2901724E-02
       1.6075045E-02
       1.1259567E-02
       1.2932488E-02
       5.3211903E-03
       2.6733114E-03
       3.1679494E-03
       1.8933595E-03
       2.0416070E-02
       2.1291577E-02
       2.1248459E-02
       6.7570576E-03
       7.9077034E-03
       8.6975672E-03
       5.9127863E-03
       6.1591340E-03
       4.2979411E-03
       3.0819600E-02
       3.0838810E-02
       3.3330512E-02
       3.1044663E-02
       3.3392188E-02
       2.9265093E-02
       3.5020219E-02
       2.8576745E-02
       3.6469445E-02
       3.4836046E-02
       3.1137762E-02
       3.2788850E-02
       1.9991583E-02
       3.5967007E-02
       2.5227953E-02
       2.5705721E-02
       1.1531152E-02
       2.4270325E-02
       3.7352114E-02
       1.6679535E-02
       1.2912612E-02
       1.7035045E-02
       1.6632837E-02
       3.5500698E-02
       3.7350491E-02
       2.7092299E-02
       2.5409156E-02
       3.5280247E-02
       3.9372514E-02
       3.9755245E-02
       3.4871021E-02
       3.8782127E-02
       4.1360305E-02
       4.0944657E-02
       4.3772232E-02
       4.2894501E-02
       4.4146107E-02
       4.3033184E-02
       4.2892315E-02
       4.2641500E-02
       4.3269265E-02
       4.3749050E-02
       4.3429877E-02
       4.3715977E-02
       4.3067330E-02
       4.0294655E-02
       4.1638083E-02
       4.0799932E-02
       4.2430497E-02
       4.4374100E-02
       4.4370658E-02
       4.4202513E-02
       4.4088601E-02
       4.4200108E-02
       4.4228651E-02
       4.4606410E-02
       8.2242844E-03
       6.2039647E-04
       2.5199579E-03
       1.5950478E-04
       2.1653166E-02
       2.2383104E-02
       2.0462841E-02
       2.1406109E-02
       2.1888212E-02
       2.7017007E-02
       2.9511934E-02
       2.9059563E-02
       2.2555919E-02
       2.1577958E-02
       2.0789429E-02
       2.6353190E-02
       2.5671398E-02
       2.3500612E-02
       2.9100372E-02
       3.2634331E-02
       4.8556019E-03
       2.2895334E-03
       6.8784253E-03
       3.3026229E-03
       4.3505527E-03
       9.4784641E-03
       7.6199416E-04
       4.0871110E-03
       2.4730593E-04
       6.9919572E-04
       5.4476319E-04
       1.0305648E-03
       5.8454117E-04
       1.8513104E-03
       1.2294589E-04
       1.2097638E-02
       1.3133666E-02
       6.6434112E-03
       9.3206177E-03
       1.9505419E-02
       1.9846507E-02
       2.1308711E-02
       2.1273498E-02
       2.2049692E-02
       2.2853812E-02
       2.3280291E-02
       1.3947857E-02
       1.3690123E-02
       1.6425171E-02
       1.6396577E-02
       9.7894997E-03
       1.4385051E-02
       1.5335035E-02
       7.1591693E-03
       1.4988388E-02
       1.6526118E-02
       1.7803704E-02
       1.7473958E-02
       1.8964729E-02
       1.7334006E-02
       7.2243006E-04
       1.8983770E-02
       1.5701527E-02
       1.8734091E-02
       1.4936375E-02
       1.4926300E-02
       1.4737341E-02
       9.2530674E-03
       1.2612255E-02
       1.1436215E-02
       1.1409217E-02
       1.1042916E-02
       5.9676084E-03
       1.4335545E-03
       1.8004226E-02
       1.7236981E-02
       1.9365979E-02
       1.3866981E-02
       1.4126638E-02
       1.3347134E-02
       1.5375522E-02
       1.4618592E-02
       1.3939401E-02
       1.6693233E-02
       1.0288456E-02
       1.7440685E-03
       1.4116640E-03
       2.5358792E-02
       2.0400094E-02
       1.3811637E-02
       1.6393451E-02
       1.3293156E-02
       1.8753466E-02
       2.1494119E-02
       2.0633232E-02
       3.8498654E-02
       4.0372583E-02
       4.0446411E-02
       4.0947003E-02
       4.0752947E-02
       4.1427124E-02
       4.0046041E-02
       4.0011786E-02
       4.0974921E-02
       4.0112004E-02
       4.3832733E-02
       4.2127657E-02
       4.4134463E-02
       3.8270551E-02
       4.0444709E-02
       4.3131617E-02
       4.2983314E-02
       4.3432067E-02
       4.2723544E-02
       4.2023543E-02
       4.3619585E-02
       3.6565062E-02
       4.3748747E-02
       4.3915094E-02
       3.9952439E-02
       3.7965519E-02
       4.4180900E-02
       4.4241283E-02
       4.3686089E-02
       4.4112107E-02
       4.3942614E-02
       3.5040807E-02
       4.4472191E-02
       4.1541338E-02
       4.4304787E-02
       3.9260449E-02
       4.3868430E-02
       4.4423906E-02
       4.4103454E-02
       4.4141996E-02
       4.4357516E-02
       4.3498182E-02
       4.4572437E-02
       4.1645638E-02
       4.4513555E-02
       4.1002101E-02
       4.1191795E-02
       4.4595488E-02
       4.4423039E-02
       4.2418304E-02
       4.0260787E-02
       1.2387625E-02
       4.4296087E-02
       1.3021710E-02
       4.4399407E-02
       4.1770539E-02
       4.4587930E-02
       3.9390611E-02
       3.7916764E-02
       4.4527246E-02
       4.4636288E-02
       4.4587494E-02
       4.4605801E-02
       4.4404043E-02
       4.4520220E-02
       4.0557315E-02
       4.0710770E-02
       4.0997474E-02
       3.9156393E-02
       3.8145301E-02
       4.3857954E-02
       3.8793238E-02
       4.1293785E-02
       3.8080331E-02
       4.0867944E-02
       3.9443787E-02
       4.4617924E-02
       4.2399330E-02
       4.4004143E-02
       4.1557952E-02
       4.3750420E-02
       4.1826149E-02
       4.1043060E-02
       3.9835112E-02
       3.9272202E-02
       4.0924220E-02
       4.2075107E-02
       4.1788502E-02
       4.1626106E-02
       4.1364996E-02
       4.1971534E-02
       4.0580477E-02
       4.1965609E-02
       3.9575879E-02
       3.9559886E-02
       4.0344088E-02
       3.9336233E-02
       4.0509294E-02
       4.1305643E-02
       4.0807536E-02
       3.9827990E-02
       3.8812158E-02
       3.8525037E-02
       3.8263703E-02
       3.6893130E-02
       3.9296087E-02
       3.9637682E-02
       4.2915147E-02
       4.4351343E-02
       4.3961830E-02
       4.3870258E-02
       4.4000545E-02
       4.4573263E-02
       4.4572751E-02
       4.4550356E-02
       4.4558861E-02
       4.4407350E-02
       4.4596346E-02
       4.4493301E-02
       4.4581435E-02
       4.4343905E-02
       4.4615735E-02
       4.4564904E-02
       4.4621360E-02
       4.4467196E-02
       4.4227243E-02
       4.4364977E-02
       4.3865976E-02
       4.4403778E-02
       4.4152099E-02
       4.3616237E-02
       4.4545622E-02
       4.4498533E-02