# vtk DataFile Version 3.0
# Solution du M1 TR
ASCII
DATASET UNSTRUCTURED_GRID
POINTS   3280  float
0.0000000E+00  0.0000000E+00  0.1373926E-01
0.2000000E+01  0.0000000E+00  0.1960145E+01
0.2000000E+01  0.1000000E+01  0.1960174E+01
0.0000000E+00  0.1000000E+01  0.1377755E-01
0.1000000E+01  0.0000000E+00  0.9931930E+00
0.1000000E+01  0.1000000E+01  0.9927214E+00
0.1500000E+01  0.5000000E+00  0.1496974E+01
0.1500000E+01  0.0000000E+00  0.1474166E+01
0.1723284E+01  0.3570951E+00  0.1705972E+01
0.1500000E+01  0.2500000E+00  0.1495304E+01
0.1515103E+01  0.2763186E+00  0.1510071E+01
0.1594866E+01  0.2826386E+00  0.1585215E+01
0.1562500E+01  0.1875000E+00  0.1553042E+01
0.1534357E+01  0.1819434E+00  0.1525888E+01
0.1561083E+01  0.3343258E+00  0.1553884E+01
0.1750000E+01  0.0000000E+00  0.1715573E+01
0.1503267E+01  0.1622339E+00  0.1495514E+01
0.1514910E+01  0.2261192E+00  0.1508910E+01
0.1610795E+01  0.1290247E+00  0.1594452E+01
0.1539062E+01  0.1536458E+00  0.1528555E+01
0.1510772E+01  0.1982718E+00  0.1504092E+01
0.1541862E+01  0.2179813E+00  0.1534237E+01
0.1475030E+01  0.2178147E+00  0.1471162E+01
0.1539206E+01  0.2578835E+00  0.1532382E+01
0.1521085E+01  0.2465697E+00  0.1515022E+01
0.1496499E+01  0.2146241E+00  0.1491176E+01
0.1481433E+01  0.1870688E+00  0.1475779E+01
0.1586261E+01  0.1960616E+00  0.1575381E+01
0.1460896E+01  0.2899333E+00  0.1459205E+01
0.1542195E+01  0.2867649E+00  0.1535596E+01
0.1486080E+01  0.2754813E+00  0.1482660E+01
0.1536278E+01  0.3247610E+00  0.1530581E+01
0.1510131E+01  0.3295675E+00  0.1506092E+01
0.1455545E+01  0.2514402E+00  0.1453578E+01
0.1610995E+01  0.1909452E+00  0.1598930E+01
0.1564462E+01  0.2395252E+00  0.1556021E+01
0.1571524E+01  0.3026484E+00  0.1563340E+01
0.1613657E+01  0.2555806E+00  0.1602772E+01
0.1633998E+01  0.2714643E+00  0.1621895E+01
0.1534973E+01  0.3650914E+00  0.1529134E+01
0.1583157E+01  0.2286349E+00  0.1573278E+01
0.1586501E+01  0.1581416E+00  0.1574109E+01
0.1651985E+01  0.2274641E+00  0.1638592E+01
0.1619170E+01  0.2936434E+00  0.1608036E+01
0.1678889E+01  0.2641389E+00  0.1664145E+01
0.1642286E+01  0.2930521E+00  0.1629692E+01
0.1526415E+01  0.3446283E+00  0.1521250E+01
0.1662420E+01  0.3044259E+00  0.1648716E+01
0.1636786E+01  0.2469276E+00  0.1624515E+01
0.1588953E+01  0.3366240E+00  0.1580046E+01
0.1616427E+01  0.3314099E+00  0.1605755E+01
0.1598305E+01  0.3102698E+00  0.1588554E+01
0.1655410E+01  0.2614708E+00  0.1641984E+01
0.1487553E+01  0.3072167E+00  0.1484501E+01
0.1520126E+01  0.3036443E+00  0.1515140E+01
0.1477894E+01  0.2544664E+00  0.1474782E+01
0.1567847E+01  0.2133479E+00  0.1558458E+01
0.1663947E+01  0.3299725E+00  0.1650469E+01
0.1567022E+01  0.2696000E+00  0.1558909E+01
0.1678598E+01  0.3509559E+00  0.1664053E+01
0.1611933E+01  0.3827205E+00  0.1601326E+01
0.1640491E+01  0.3197373E+00  0.1628299E+01
0.1588015E+01  0.2526666E+00  0.1578454E+01
0.1708471E+01  0.3144917E+00  0.1692014E+01
0.1606944E+01  0.3564315E+00  0.1596810E+01
0.1604614E+01  0.2314093E+00  0.1593697E+01
0.1643491E+01  0.3631133E+00  0.1631146E+01
0.2000000E+01  0.5000000E+00  0.1960405E+01
0.1494727E+01  0.3621796E+00  0.1491411E+01
0.1701807E+01  0.3477237E+00  0.1685731E+01
0.1572156E+01  0.3701847E+00  0.1564219E+01
0.1688392E+01  0.3285111E+00  0.1673324E+01
0.1695932E+01  0.3904821E+00  0.1680197E+01
0.1636337E+01  0.3418163E+00  0.1624568E+01
0.1505941E+01  0.9448485E-01  0.1487258E+01
0.1423727E+01  0.1910920E+00  0.1421322E+01
0.1481447E+01  0.3359634E+00  0.1479112E+01
0.1441613E+01  0.3726133E+00  0.1441787E+01
0.1466699E+01  0.3599060E+00  0.1465281E+01
0.1476682E+01  0.4107296E+00  0.1474733E+01
0.1434448E+01  0.3273535E+00  0.1434989E+01
0.1464523E+01  0.3867258E+00  0.1463437E+01
0.1456903E+01  0.3373583E+00  0.1456179E+01
0.1454188E+01  0.3132491E+00  0.1453187E+01
0.1424069E+01  0.2919612E+00  0.1424392E+01
0.1490969E+01  0.3884111E+00  0.1488120E+01
0.1428051E+01  0.4202828E+00  0.1429366E+01
0.1513790E+01  0.3782958E+00  0.1509326E+01
0.1547789E+01  0.4092466E+00  0.1541367E+01
0.1535154E+01  0.3889763E+00  0.1529392E+01
0.1512699E+01  0.4170463E+00  0.1508614E+01
0.1441554E+01  0.3983607E+00  0.1441969E+01
0.1395941E+01  0.3853832E+00  0.1399355E+01
0.1420578E+01  0.3854393E+00  0.1422248E+01
0.1408336E+01  0.3518173E+00  0.1410624E+01
0.1549967E+01  0.3074339E+00  0.1543282E+01
0.1651639E+01  0.4114272E+00  0.1638802E+01
0.1668616E+01  0.3788978E+00  0.1654670E+01
0.1674624E+01  0.4027285E+00  0.1660449E+01
0.1706988E+01  0.4343785E+00  0.1690794E+01
0.1673984E+01  0.4357547E+00  0.1659748E+01
0.1695270E+01  0.4139894E+00  0.1679807E+01
0.1737273E+01  0.4034108E+00  0.1719005E+01
0.1645630E+01  0.3875965E+00  0.1633255E+01
0.1625874E+01  0.4052508E+00  0.1614580E+01
0.1627808E+01  0.4540126E+00  0.1616720E+01
0.1587158E+01  0.4136289E+00  0.1578255E+01
0.1633718E+01  0.4293591E+00  0.1622201E+01
0.1651607E+01  0.4466828E+00  0.1638926E+01
0.1605650E+01  0.4356658E+00  0.1595753E+01
0.1682168E+01  0.4808869E+00  0.1667444E+01
0.1671711E+01  0.4594749E+00  0.1657857E+01
0.1698428E+01  0.4596870E+00  0.1682960E+01
0.1646221E+01  0.4851828E+00  0.1633808E+01
0.1607747E+01  0.4151289E+00  0.1597589E+01
0.1584205E+01  0.4841185E+00  0.1575579E+01
0.1747573E+01  0.4622079E+00  0.1728905E+01
0.1568396E+01  0.4481495E+00  0.1560689E+01
0.1601760E+01  0.4629165E+00  0.1592323E+01
0.1723356E+01  0.4540167E+00  0.1706207E+01
0.1732897E+01  0.4294241E+00  0.1714891E+01
0.1722218E+01  0.4972746E+00  0.1705237E+01
0.1715121E+01  0.4754441E+00  0.1698564E+01
0.1584567E+01  0.4345797E+00  0.1575986E+01
0.1563465E+01  0.4258523E+00  0.1556259E+01
0.1534166E+01  0.4440258E+00  0.1528607E+01
0.1615090E+01  0.4918227E+00  0.1604693E+01
0.1717469E+01  0.4134541E+00  0.1700517E+01
0.1718488E+01  0.3909170E+00  0.1701264E+01
0.1741353E+01  0.3769080E+00  0.1722757E+01
0.1781199E+01  0.4241746E+00  0.1759953E+01
0.2000000E+01  0.2500000E+00  0.1960280E+01
0.1756308E+01  0.4199875E+00  0.1736895E+01
0.1762447E+01  0.3937207E+00  0.1742518E+01
0.1765097E+01  0.4438197E+00  0.1745101E+01
0.1807974E+01  0.4625425E+00  0.1784304E+01
0.1789176E+01  0.4471344E+00  0.1767268E+01
0.1514158E+01  0.1287364E+00  0.1502448E+01
0.1777674E+01  0.4803377E+00  0.1756968E+01
0.1811145E+01  0.4395021E+00  0.1787652E+01
0.1850404E+01  0.4566449E+00  0.1822564E+01
0.1748483E+01  0.3522599E+00  0.1729359E+01
0.1731235E+01  0.3304535E+00  0.1713373E+01
0.1777870E+01  0.3654441E+00  0.1756955E+01
0.1748149E+01  0.2821176E+00  0.1729042E+01
0.1732875E+01  0.3039003E+00  0.1714833E+01
0.1708314E+01  0.2807181E+00  0.1691937E+01
0.1767650E+01  0.3193756E+00  0.1747343E+01
0.1372661E+01  0.1704076E+00  0.1371542E+01
0.1411157E+01  0.2494459E+00  0.1411832E+01
0.1448000E+01  0.2246098E+00  0.1445828E+01
0.1360382E+01  0.2278583E+00  0.1363322E+01
0.1433680E+01  0.2431125E+00  0.1432950E+01
0.1388814E+01  0.2314916E+00  0.1390204E+01
0.1314549E+01  0.2124991E+00  0.1319800E+01
0.1404157E+01  0.2007613E+00  0.1403736E+01
0.1415035E+01  0.1072182E+00  0.1405257E+01
0.1520299E+01  0.1091515E+00  0.1505170E+01
0.1459010E+01  0.1690672E+00  0.1453700E+01
0.1436337E+01  0.2690050E+00  0.1435734E+01
0.1443480E+01  0.1263360E+00  0.1435399E+01
0.1625000E+01  0.0000000E+00  0.1594281E+01
0.1414954E+01  0.2197329E+00  0.1414408E+01
0.1335299E+01  0.2266424E+00  0.1339604E+01
0.1396801E+01  0.1612344E+00  0.1393589E+01
0.1792033E+01  0.3934232E+00  0.1770061E+01
0.1541310E+01  0.1264947E+00  0.1528262E+01
0.1483859E+01  0.1256971E+00  0.1472641E+01
0.1500341E+01  0.1139400E+00  0.1486995E+01
0.1498380E+01  0.1421255E+00  0.1488382E+01
0.1478242E+01  0.1468909E+00  0.1470160E+01
0.1453147E+01  0.1972183E+00  0.1449586E+01
0.1348833E+01  0.2067866E+00  0.1351744E+01
0.1368157E+01  0.2800764E+00  0.1371871E+01
0.1250000E+01  0.0000000E+00  0.1234688E+01
0.1496272E+01  0.2780308E-01  0.1471660E+01
0.1430228E+01  0.1622338E+00  0.1425369E+01
0.1544491E+01  0.1012427E+00  0.1526666E+01
0.1505524E+01  0.5428530E-01  0.1482940E+01
0.1576405E+01  0.1180891E+00  0.1560218E+01
0.1526885E+01  0.8834234E-01  0.1506396E+01
0.1558557E+01  0.6358195E-01  0.1535024E+01
0.1372206E+01  0.9428859E-01  0.1360976E+01
0.1414069E+01  0.8636887E-01  0.1400222E+01
0.1351230E+01  0.1581055E+00  0.1350483E+01
0.1371634E+01  0.2528708E+00  0.1374754E+01
0.1392978E+01  0.2694234E+00  0.1395011E+01
0.1321668E+01  0.2603105E+00  0.1328015E+01
0.1392566E+01  0.3027057E+00  0.1395187E+01
0.1345601E+01  0.2495441E+00  0.1350155E+01
0.1349996E+01  0.1827855E+00  0.1351338E+01
0.1475238E+01  0.9618066E-01  0.1459124E+01
0.1487372E+01  0.4556180E+00  0.1484973E+01
0.1432024E+01  0.3509343E+00  0.1432686E+01
0.1619231E+01  0.5383449E+00  0.1608330E+01
0.1532505E+01  0.4233173E+00  0.1527104E+01
0.1547332E+01  0.4788657E+00  0.1541030E+01
0.1627786E+01  0.4750493E+00  0.1616435E+01
0.1750658E+01  0.4911384E+00  0.1731949E+01
0.1783313E+01  0.5336292E+00  0.1762177E+01
0.1744147E+01  0.5299352E+00  0.1725682E+01
0.1772978E+01  0.5077787E+00  0.1752568E+01
0.1739682E+01  0.5092411E+00  0.1721513E+01
0.1715917E+01  0.5251974E+00  0.1699207E+01
0.1809547E+01  0.4999146E+00  0.1785825E+01
0.1486188E+01  0.5335558E+00  0.1483479E+01
0.1695320E+01  0.5058771E+00  0.1680046E+01
0.1793562E+01  0.5145404E+00  0.1771393E+01
0.1827482E+01  0.5355643E+00  0.1802034E+01
0.1805457E+01  0.5332234E+00  0.1782374E+01
0.1812320E+01  0.5734372E+00  0.1788910E+01
0.1794794E+01  0.5557356E+00  0.1772864E+01
0.1637325E+01  0.5533192E+00  0.1625415E+01
0.1761146E+01  0.5591762E+00  0.1741685E+01
0.1789115E+01  0.5788851E+00  0.1767459E+01
0.1693317E+01  0.6123782E+00  0.1678121E+01
0.1522396E+01  0.5359490E+00  0.1517458E+01
0.1814654E+01  0.6254783E+00  0.1790686E+01
0.1726166E+01  0.5505978E+00  0.1708788E+01
0.1691322E+01  0.5307786E+00  0.1676345E+01
0.1516987E+01  0.5143680E+00  0.1512615E+01
0.1661909E+01  0.5147686E+00  0.1648538E+01
0.1761865E+01  0.6508066E+00  0.1742042E+01
0.1692174E+01  0.5698207E+00  0.1677130E+01
0.1780214E+01  0.6037461E+00  0.1759399E+01
[...]
POINT_DATA    3280
SCALARS hauteur float
LOOKUP_TABLE DEFAULT
       1.3739263E-02
       1.1757295E-05
       4.0970683E-05
       1.3777548E-02
       1.3126464E-02
       1.2654793E-02
       2.6874420E-02
       4.0665545E-03
       1.7039425E-02
       2.5203845E-02
       2.5169069E-02
       2.2140710E-02
       2.1687654E-02
       2.2115762E-02
       2.3918755E-02
       4.5677870E-04
       2.2211671E-02
       2.4197209E-02
       1.5765202E-02
       2.0171317E-02
       2.3435091E-02
       2.3109817E-02
       2.5534569E-02
       2.3857863E-02
       2.4257271E-02
       2.4507376E-02
       2.3876063E-02
       2.0738678E-02
       2.7429940E-02
       2.4142102E-02
       2.6202843E-02
       2.4926620E-02
       2.6063867E-02
       2.7046894E-02
       2.0047767E-02
       2.2744095E-02
       2.3142146E-02
       2.1280523E-02
       2.0468086E-02
       2.4758076E-02
       2.1678183E-02
       1.9232137E-02
       1.9536509E-02
       2.1141915E-02
       1.8722051E-02
       2.0142205E-02
       2.5262119E-02
       1.9433417E-02
       2.0354993E-02
       2.2766819E-02
       2.1549295E-02
       2.2108970E-02
       1.9571895E-02
       2.6599752E-02
       2.5315162E-02
       2.6348181E-02
       2.1863260E-02
       1.9690198E-02
       2.3122898E-02
       1.8914672E-02
       2.1524660E-02
       2.0508934E-02
       2.2093903E-02
       1.7598494E-02
       2.1898428E-02
       2.1068554E-02
       2.0415091E-02
       2.7153130E-04
       2.6479086E-02
       1.7847347E-02
       2.3402181E-02
       1.8587558E-02
       1.8070312E-02
       2.0848843E-02
       1.1335519E-02
       2.5974420E-02
       2.7195108E-02
       2.8910599E-02
       2.7818188E-02
       2.7485517E-02
       2.9135016E-02
       2.8106408E-02
       2.8316807E-02
       2.7986008E-02
       2.8709485E-02
       2.6871109E-02
       2.9781380E-02
       2.5711139E-02
       2.4430271E-02
       2.4838306E-02
       2.6068055E-02
       2.9149605E-02
       3.1240427E-02
       2.9987547E-02
       3.0361720E-02
       2.4212076E-02
       2.0085504E-02
       1.9315286E-02
       1.9205343E-02
       1.7832506E-02
       1.9131877E-02
       1.8329775E-02
       1.6361631E-02
       2.0428492E-02
       2.1114707E-02
       2.1360350E-02
       2.2734253E-02
       2.1048596E-02
       2.0240575E-02
       2.2109106E-02
       1.8807612E-02
       1.9468545E-02
       1.8388346E-02
       2.0401872E-02
       2.1889266E-02
       2.2952343E-02
       1.6167335E-02
       2.3556363E-02
       2.2491139E-02
       1.7204007E-02
       1.6536270E-02
       1.7348756E-02
       1.7631713E-02
       2.3004823E-02
       2.3959262E-02
       2.5022737E-02
       2.1797756E-02
       1.7283640E-02
       1.7031152E-02
       1.6115278E-02
       1.4259035E-02
       1.4686940E-04
       1.5596489E-02
       1.5202248E-02
       1.5188936E-02
       1.2369415E-02
       1.3756578E-02
       1.8471732E-02
       1.4728997E-02
       1.2608791E-02
       9.0451043E-03
       1.5729143E-02
       1.6647225E-02
       1.4523675E-02
       1.5739901E-02
       1.6499981E-02
       1.7675818E-02
       1.4928955E-02
       2.6242326E-02
       2.8804449E-02
       2.6691475E-02
       3.0057071E-02
       2.7848551E-02
       2.9074149E-02
       3.1454453E-02
       2.7568111E-02
       1.8427998E-02
       1.5175155E-02
       2.3773861E-02
       2.8028961E-02
       2.0692394E-02
       1.6729772E-03
       2.7658827E-02
       3.0921461E-02
       2.4630542E-02
       1.3750151E-02
       1.7675423E-02
       1.8360138E-02
       1.6561719E-02
       1.9870263E-02
       2.1383970E-02
       2.5404897E-02
       2.9797667E-02
       3.0986378E-02
       9.6046015E-03
       5.2140026E-03
       2.3650358E-02
       1.2961785E-02
       7.4266502E-03
       1.5236289E-02
       9.9466471E-03
       7.5346183E-03
       1.6123090E-02
       1.4340894E-02
       2.6187602E-02
       3.0461583E-02
       2.9799799E-02
       3.2693045E-02
       3.0379325E-02
       3.1375916E-02
       2.8251628E-02
       1.3292812E-02
       2.7249648E-02
       2.9206925E-02
       2.1375365E-02
       2.5147479E-02
       2.4541213E-02
       2.1096675E-02
       1.6187712E-02
       1.4412277E-02
       1.6301662E-02
       1.4931931E-02
       1.6508409E-02
       1.7494408E-02
       1.2348725E-02
       2.6915966E-02
       1.8519087E-02
       1.3582811E-02
       1.0979949E-02
       1.2905738E-02
       1.2715954E-02
       1.3846291E-02
       2.0727001E-02
       1.5645098E-02
       1.4007321E-02
       1.8558166E-02
       2.5408615E-02
       1.2204183E-02
       1.7030088E-02
       1.8737703E-02
       2.5866415E-02
       1.9756554E-02
       1.5296929E-02
       1.8686813E-02
       1.4670811E-02
       2.3679219E-02
       1.9583863E-02
       1.6039419E-02
       2.2875933E-02
       1.8822906E-02
       1.6601164E-02
       1.6093705E-02
       1.7087782E-02
       1.6760450E-02
       1.0968012E-02
       1.1614753E-02
       2.1517986E-04
       1.4749148E-02
       7.8899801E-03
       1.4161010E-02
       1.5487736E-02
       1.8522674E-02
       1.6625358E-02
       1.2869857E-02
       1.0406755E-02
       1.0659418E-02
       1.2070880E-02
       1.2899357E-02
       1.2963604E-02
       1.4493709E-02
       2.0324905E-02
       2.8476675E-02
       1.6932871E-02
       1.8502720E-02
       2.0476600E-02
       2.3367123E-02
       7.5711290E-03
       1.0309955E-02
       7.0178816E-03
       3.1053335E-03
       3.2476677E-03
       4.3035072E-03
       1.1839568E-02
       1.2175384E-02
       3.9911453E-03
       1.6181159E-02
       6.6791693E-03
       1.5060276E-02
       4.9122593E-03
       1.0957851E-03
       1.1819451E-02
       1.8452593E-02
       1.7404691E-02
       1.8956288E-02
       9.4446088E-03
       1.8207149E-02
       2.3978122E-02
       2.1794603E-02
       2.8498450E-02
       2.6602657E-02
       2.3952197E-02
       2.6466767E-02
       1.3285871E-02
       6.9026802E-03
       2.2522743E-02
       9.9566544E-03
       2.1795655E-02
       7.3683372E-03
       2.9448021E-02
       2.9785468E-02
       3.1030706E-02
       3.1730432E-02
       3.2446132E-02
       2.6979802E-02
       2.5976436E-02
       2.8367823E-02
       2.5416433E-02
       2.5552936E-02
       2.2378785E-02
       2.4578367E-02
       2.0507315E-02
       2.4402298E-02
       2.3647004E-02
       1.3264238E-02
       1.1324659E-02
       1.0006375E-02
       1.5414256E-02
       1.9625060E-02
       1.0116216E-02
       1.3020971E-02
       2.0796903E-02
       2.2589254E-02
       1.1646398E-02
       1.7746685E-02
       1.2541450E-02
       1.7063517E-02
       1.5272401E-02
       1.6022202E-02
       1.6391414E-02
       1.2776453E-02
       8.1460282E-03
       1.5042697E-04
       1.3686916E-02
       4.9867093E-03
       1.5139976E-02
       1.4108219E-02
       1.9702620E-02
       3.4256266E-04
       1.0959468E-02
       1.4807990E-02
       1.3683554E-02
       1.8292939E-02
       1.7599333E-02
       3.6900588E-03
       2.1789766E-02
       4.5079625E-03
       1.5970863E-02
       2.3859448E-02
       3.9431594E-03
       1.6059408E-03
       1.7859787E-02
       1.7403264E-02
       1.8869361E-02
       1.8977386E-02
       1.2502949E-02
       1.8985478E-02
       1.7803945E-02
       1.8789689E-02
       2.0113194E-02
       1.7614688E-02
       1.4431413E-02
       1.6333550E-02
       1.7519497E-02
       1.1145183E-03
       1.0747052E-02
       1.0129958E-02
       1.2280837E-02
       4.6963463E-03
       4.3304306E-03
       1.9961310E-03
       2.2060458E-03
       1.4241252E-03
       1.7935970E-02
       1.9228428E-02
       1.6957027E-02
       1.4064476E-02
       1.8481365E-02
       1.2121011E-02
       5.4970790E-03
       1.0205499E-02
       6.1327669E-03
       4.7929917E-03
       3.5968500E-03
       5.2823002E-03
       6.5509610E-03
       2.8776106E-02
       3.3721299E-02
       3.1333286E-02
       3.2443378E-02
       3.3966629E-02
       3.1928632E-02
       3.3408060E-02
       3.5338941E-02
       3.4587066E-02
       3.6375717E-02
       3.4057690E-02
       3.5643308E-02
       3.7638610E-02
       3.6538358E-02
       3.6433930E-02
       3.6403158E-02
       3.5046646E-02
       3.2841052E-02
       3.1909160E-02
       3.2762992E-02
       3.2225048E-02
       3.3612161E-02
       3.5045137E-02
       3.4904552E-02
       3.0463449E-02
       2.7778783E-02
       3.0316608E-02
       2.8439092E-02
       2.7645994E-02
       3.2160905E-02
       3.4109732E-02
       3.3572925E-02
       3.2857298E-02
       3.2656661E-02
       3.3740572E-02
       3.5942004E-02
       3.5085882E-02
       3.2077570E-02
       3.4686598E-02
       3.5510609E-02
       3.6272509E-02
       3.5146557E-02
       3.2903635E-02
       3.3338598E-02
       3.8360127E-02
       3.5115010E-02
       3.8282668E-02
       3.7202605E-02
       3.7301216E-02
       3.7577342E-02
       3.9466477E-02
       3.8524632E-02
       3.8436710E-02
       3.6879586E-02
       3.8057712E-02
       4.0010524E-02
       3.8986181E-02
       3.9731336E-02
       3.7110872E-02
       4.1499013E-02
       3.6650371E-02
       4.0443773E-02
       3.4529337E-02
       3.8627784E-02
       4.0703592E-02
       4.1626334E-02
       4.1529226E-02
       4.2952595E-02
       4.2337192E-02
       4.1676684E-02
       4.0180167E-02
       3.5883067E-02
       3.7666362E-02
       4.2253297E-02
       4.2260002E-02
       4.2542350E-02
       4.3731244E-02
       4.3318200E-02
       4.1285020E-02
       4.3351295E-02
       3.5056975E-02
       3.6493319E-02
       4.2985906E-02
       4.2697301E-02
       4.2423988E-02
       4.3157558E-02
       4.3633357E-02
       3.3336328E-02
       3.6593989E-02
       4.4377749E-02
       3.5369489E-02
       3.8692676E-02
       4.3914450E-02
       4.4266288E-02
       3.3066969E-02
       3.7908416E-02
       3.9164551E-02
       4.3819254E-02
       4.4302229E-02
       4.4259506E-02
       4.5106616E-02
       4.4794310E-02
       3.4142455E-02
       3.3160667E-02
       3.4527542E-02
       3.0822442E-02
       3.4754696E-02
       3.2066708E-02
       3.2440275E-02
       3.1623191E-02
       4.4861086E-02
       4.5521213E-02
       3.0885224E-02
       4.4671011E-02
       4.5117889E-02
       4.4347806E-02
       4.5297332E-02
       2.9611536E-02
       3.1319896E-02
       3.0343240E-02
       2.8704594E-02
       2.9677261E-02
       2.9615854E-02
       4.4922222E-02
       4.4388885E-02
       4.5309677E-02
       4.4502687E-02
       2.8714789E-02
       2.7774241E-02
       4.3937876E-02
       4.5652305E-02
       4.4962188E-02
       4.3216051E-02
       2.7928779E-02
       4.5013036E-02
       4.3888383E-02
       4.3223217E-02
       2.9027350E-02
       4.4705545E-02
       4.5279129E-02
       4.3575724E-02
       4.5929850E-02
       4.3969438E-02
       4.5575012E-02
       4.5702305E-02
       4.5827331E-02
       4.6044693E-02
       4.5893625E-02
       4.5635638E-02
       4.5544459E-02
       4.6229252E-02
       4.6047605E-02
       4.6166957E-02
       4.6122006E-02
       4.6204557E-02
       2.8570014E-02
       1.2120812E-02
       9.1011634E-03
       3.6211512E-03
       6.8223097E-03
       4.0301330E-03
       5.9331390E-03
       5.5938484E-03
       7.5218259E-03
       7.9891623E-03
       6.9925999E-03
       8.7794993E-03
       9.1515059E-05
       4.8630595E-04
       4.5246599E-03
       5.0411059E-03
       3.0417501E-03
       1.4508746E-03
       5.3670203E-03
       8.2036306E-04
       7.9291192E-04
       3.4177275E-03
       1.8306522E-03
       9.2828824E-04
       1.7403807E-03
       1.3894969E-04
       2.6575102E-02
       1.9967394E-02
       1.9135461E-02
       2.0957399E-02
       1.9753282E-02
       2.0225572E-02
       2.1141838E-02
       2.4915798E-02
       2.3128434E-02
       2.4120112E-02
       2.5080451E-02
       2.3324079E-02
       2.4056746E-02
       2.2361029E-02
       2.4244450E-02
       2.5324616E-02
       2.4866626E-02
       2.6273967E-02
       2.7235757E-02
       2.6343470E-02
       2.4967779E-02
       2.3227705E-02
       2.4105281E-02
       2.3421100E-02
       2.4080854E-02
       2.5334535E-02
       2.4407588E-02
       2.3391858E-02
       2.4390638E-02
       2.3713474E-02
       2.4413472E-02
       2.1925994E-02
       2.4308342E-02
       2.2138661E-02
       2.5853264E-02
       2.3281848E-02
       2.5307290E-02
       2.6403951E-02
       2.2765732E-02
       2.3140711E-02
       2.4547151E-02
       2.6181414E-02
       2.7989576E-02
       2.6952196E-02
       2.6061631E-02
       2.8402812E-02
       2.6769755E-02
       2.7788182E-02
       2.6942920E-02
       2.5745924E-02
       2.7586836E-02
       2.7188286E-02
       2.8556767E-02
       2.7019609E-02
       2.7951151E-02
       3.0208355E-02
       2.9028976E-02
       3.0372296E-02
       1.5146698E-02
       1.6560999E-02
       1.7584738E-02
       1.8133354E-02
       1.7521962E-02
       1.5868559E-02
       1.0283338E-02
       2.9149982E-03
       1.0047446E-02
       6.3726975E-03
       1.7973183E-02
       2.0574572E-02
       1.5301122E-02
       1.4328499E-02
       1.8568840E-02
       1.8681807E-02
       1.7490745E-02
       1.5779547E-02
       1.6295984E-02
       1.6822359E-02
       1.6617911E-02
       1.7879307E-02
       1.3710846E-02
       1.3873833E-02
       1.5341648E-02
       1.5002044E-02
       1.2754363E-02
       1.3976155E-02
       1.4608702E-02
       1.1103103E-02
       9.1052710E-03
       1.2729725E-02
       1.1673546E-02
       1.2675433E-02
       1.3023787E-02
       1.6143477E-02
       1.1327643E-02
       1.3054408E-02
       5.1473991E-03
       2.5937287E-03
       3.1220412E-03
       1.8874846E-03
       2.0243386E-02
       2.0678518E-02
       2.0670058E-02
       6.4271698E-03
       7.5591595E-03
       8.3101550E-03
       5.6167349E-03
       5.8723527E-03
       4.1019613E-03
       2.9988651E-02
       3.0228251E-02
       3.2907892E-02
       3.0557514E-02
       3.2812572E-02
       2.9035594E-02
       3.4554368E-02
       2.8196851E-02
       3.6126082E-02
       3.4539361E-02
       3.0778853E-02
       3.2622057E-02
       1.9892459E-02
       3.5928737E-02
       2.4844227E-02
       2.5440189E-02
       1.2035086E-02
       2.4156448E-02
       3.6923206E-02
       1.6770527E-02
       1.2492207E-02
       1.6888035E-02
       1.6380674E-02
       3.5323483E-02
       3.7224580E-02
       2.6424785E-02
       2.4754099E-02
       3.4294885E-02
       3.8784751E-02
       3.9379182E-02
       3.3887561E-02
       3.8021840E-02
       4.1101318E-02
       4.0585647E-02
       4.4637744E-02
       4.3213048E-02
       4.5423068E-02
       4.4389183E-02
       4.4368301E-02
       4.4024094E-02
       4.4734767E-02
       4.5368658E-02
       4.4978004E-02
       4.5265029E-02
       4.4618140E-02
       4.1579808E-02
       4.2930430E-02
       4.1794233E-02
       4.3471320E-02
       4.5810003E-02
       4.5844500E-02
       4.5440339E-02
       4.5214833E-02
       4.5468640E-02
       4.5899635E-02
       4.6430876E-02
       8.0703862E-03
       6.1907937E-04
       2.4124440E-03
       1.7264534E-04
       2.1441568E-02
       2.2112406E-02
       2.0326504E-02
       2.1200218E-02
       2.1656392E-02
       2.6385422E-02
       2.8705365E-02
       2.8279197E-02
       2.2267844E-02
       2.1359524E-02
       2.0586985E-02
       2.5769850E-02
       2.5139229E-02
       2.2936292E-02
       2.8321980E-02
       3.1678434E-02
       4.7082337E-03
       2.2288010E-03
       6.7366606E-03
       3.1554026E-03
       4.2217772E-03
       9.4586604E-03
       7.5488031E-04
       3.9611760E-03
       2.5349810E-04
       6.9155328E-04
       5.4433947E-04
       1.0043561E-03
       5.8089980E-04
       1.8031219E-03
       1.3414832E-04
       1.2194873E-02
       1.3254400E-02
       6.4739110E-03
       9.2390971E-03
       1.9423499E-02
       1.9734509E-02
       2.1103255E-02
       2.1057329E-02
       2.1797841E-02
       2.2537345E-02
       2.2936924E-02
       1.4029718E-02
       1.3792741E-02
       1.6470849E-02
       1.6376917E-02
       9.7961103E-03
       1.4434178E-02
       1.5381269E-02
       7.0389228E-03
       1.5060856E-02
       1.6530539E-02
       1.7753720E-02
       1.7364110E-02
       1.8872845E-02
       1.7263946E-02
       7.5631627E-04
       1.8852573E-02
       1.5636073E-02
       1.8636896E-02
       1.4915375E-02
       1.4825228E-02
       1.4756012E-02
       9.2846933E-03
       1.2647589E-02
       1.1503241E-02
       1.1415631E-02
       1.1092593E-02
       6.0001953E-03
       1.4189282E-03
       1.7792413E-02
       1.7083673E-02
       1.9160399E-02
       1.3986106E-02
       1.4248590E-02
       1.3474324E-02
       1.5467968E-02
       1.4731927E-02
       1.4059949E-02
       1.6735417E-02
       1.0312331E-02
       1.7252327E-03
       1.4329051E-03
       2.4850817E-02
       2.0027052E-02
       1.3449864E-02
       1.6043870E-02
       1.3081190E-02
       1.8279757E-02
       2.1014622E-02
       2.0375154E-02
       3.8184244E-02
       3.9868668E-02
       3.9967073E-02
       4.0583906E-02
       4.0335653E-02
       4.1198113E-02
       3.9483381E-02
       3.9447590E-02
       4.0636931E-02
       3.9587834E-02
       4.4733410E-02
       4.3519742E-02
       4.5920990E-02
       3.9555448E-02
       4.1689781E-02
       4.4744372E-02
       4.4553893E-02
       4.5078281E-02
       4.4277612E-02
       4.3470855E-02
       4.5310475E-02
       3.7724921E-02
       4.5453919E-02
       4.5656605E-02
       4.1252481E-02
       3.8313934E-02
       4.5973857E-02
       4.6041585E-02
       4.5333723E-02
       4.5817287E-02
       4.5648640E-02
       3.6227438E-02
       4.6303388E-02
       4.2737167E-02
       4.6081948E-02
       4.0466804E-02
       4.5600013E-02
       4.6199760E-02
       4.5869410E-02
       4.5902003E-02
       4.6172735E-02
       4.5137020E-02
       4.6451297E-02
       4.3078879E-02
       4.6370602E-02
       4.2394780E-02
       4.2511705E-02
       4.6460300E-02
       4.6266853E-02
       4.3878771E-02
       4.1599803E-02
       1.3731228E-02
       4.6116537E-02
       1.4376729E-02
       4.6246486E-02
       4.3229456E-02
       4.6482874E-02
       4.0549888E-02
       3.9045110E-02
       4.6406552E-02
       4.6548666E-02
       4.6485702E-02
       4.6510976E-02
       4.6249443E-02
       4.6392730E-02
       4.1937680E-02
       4.1886999E-02
       4.2370388E-02
       4.0394439E-02
       3.9362549E-02
       4.5568564E-02
       4.0081639E-02
       4.2659990E-02
       3.9263759E-02
       4.1585896E-02
       4.0751705E-02
       4.6525324E-02
       4.3902307E-02
       4.5758265E-02
       4.2539073E-02
       4.5460390E-02
       4.2940757E-02
       4.2142016E-02
       4.0858124E-02
       4.0084631E-02
       4.1798340E-02
       4.2689385E-02
       4.2652294E-02
       4.2312024E-02
       4.1798248E-02
       4.2385027E-02
       4.1109841E-02
       4.2246512E-02
       4.0149553E-02
       3.9744922E-02
       4.0656195E-02
       3.9718306E-02
       4.0633948E-02
       4.1532304E-02
       4.0807295E-02
       3.9684794E-02
       3.8672541E-02
       3.8546293E-02
       3.8458620E-02
       3.7114931E-02
       3.8959029E-02
       3.9643829E-02
       4.3910104E-02
       4.5760721E-02
       4.5002770E-02
       4.5157506E-02
       4.5633260E-02
       4.6355687E-02
       4.6320293E-02
       4.6321833E-02
       4.6301809E-02
       4.6057010E-02
       4.6395521E-02
       4.6203750E-02
       4.6427354E-02
       4.6045674E-02
       4.6462587E-02
       4.6373365E-02
       4.6495082E-02
       4.6225678E-02
       4.5970504E-02
       4.6117531E-02
       4.5485896E-02
       4.6199327E-02
       4.5844448E-02
       4.5251607E-02
       4.6349964E-02
       4.6300203E-02