# vtk DataFile Version 3.0
# Solution du M1 TR
ASCII
DATASET UNSTRUCTURED_GRID
POINTS   3280  float
0.0000000E+00  0.0000000E+00  0.2351233E-01
0.2000000E+01  0.0000000E+00  0.1960274E+01
0.2000000E+01  0.1000000E+01  0.1960427E+01
0.0000000E+00  0.1000000E+01  0.2370233E-01
0.1000000E+01  0.0000000E+00  0.9925872E+00
0.1000000E+01  0.1000000E+01  0.9920145E+00
0.1500000E+01  0.5000000E+00  0.1495603E+01
0.1500000E+01  0.0000000E+00  0.1473043E+01
0.1723284E+01  0.3570951E+00  0.1700388E+01
0.1500000E+01  0.2500000E+00  0.1494895E+01
0.1515103E+01  0.2763186E+00  0.1509352E+01
0.1594866E+01  0.2826386E+00  0.1583668E+01
0.1562500E+01  0.1875000E+00  0.1552539E+01
0.1534357E+01  0.1819434E+00  0.1525499E+01
0.1561083E+01  0.3343258E+00  0.1552510E+01
0.1750000E+01  0.0000000E+00  0.1715428E+01
0.1503267E+01  0.1622339E+00  0.1495105E+01
0.1514910E+01  0.2261192E+00  0.1508606E+01
0.1610795E+01  0.1290247E+00  0.1591902E+01
0.1539062E+01  0.1536458E+00  0.1527802E+01
0.1510772E+01  0.1982718E+00  0.1503822E+01
0.1541862E+01  0.2179813E+00  0.1533843E+01
0.1475030E+01  0.2178147E+00  0.1470803E+01
0.1539206E+01  0.2578835E+00  0.1531706E+01
0.1521085E+01  0.2465697E+00  0.1514569E+01
0.1496499E+01  0.2146241E+00  0.1490938E+01
0.1481433E+01  0.1870688E+00  0.1475483E+01
0.1586261E+01  0.1960616E+00  0.1574359E+01
0.1460896E+01  0.2899333E+00  0.1458284E+01
0.1542195E+01  0.2867649E+00  0.1534654E+01
0.1486080E+01  0.2754813E+00  0.1481953E+01
0.1536278E+01  0.3247610E+00  0.1529417E+01
0.1510131E+01  0.3295675E+00  0.1504925E+01
0.1455545E+01  0.2514402E+00  0.1452904E+01
0.1610995E+01  0.1909452E+00  0.1597297E+01
0.1564462E+01  0.2395252E+00  0.1555303E+01
0.1571524E+01  0.3026484E+00  0.1561983E+01
0.1613657E+01  0.2555806E+00  0.1600970E+01
0.1633998E+01  0.2714643E+00  0.1619449E+01
0.1534973E+01  0.3650914E+00  0.1527579E+01
0.1583157E+01  0.2286349E+00  0.1572311E+01
0.1586501E+01  0.1581416E+00  0.1572891E+01
0.1651985E+01  0.2274641E+00  0.1635847E+01
0.1619170E+01  0.2936434E+00  0.1605853E+01
0.1678889E+01  0.2641389E+00  0.1660122E+01
0.1642286E+01  0.2930521E+00  0.1626792E+01
0.1526415E+01  0.3446283E+00  0.1519914E+01
0.1662420E+01  0.3044259E+00  0.1645092E+01
0.1636786E+01  0.2469276E+00  0.1622228E+01
0.1588953E+01  0.3366240E+00  0.1578275E+01
0.1616427E+01  0.3314099E+00  0.1603498E+01
0.1598305E+01  0.3102698E+00  0.1586746E+01
0.1655410E+01  0.2614708E+00  0.1638793E+01
0.1487553E+01  0.3072167E+00  0.1483492E+01
0.1520126E+01  0.3036443E+00  0.1514145E+01
0.1477894E+01  0.2544664E+00  0.1474213E+01
0.1567847E+01  0.2133479E+00  0.1557839E+01
0.1663947E+01  0.3299725E+00  0.1647027E+01
0.1567022E+01  0.2696000E+00  0.1557858E+01
0.1678598E+01  0.3509559E+00  0.1659977E+01
0.1611933E+01  0.3827205E+00  0.1598467E+01
0.1640491E+01  0.3197373E+00  0.1625478E+01
0.1588015E+01  0.2526666E+00  0.1577222E+01
0.1708471E+01  0.3144917E+00  0.1687023E+01
0.1606944E+01  0.3564315E+00  0.1594421E+01
0.1604614E+01  0.2314093E+00  0.1592199E+01
0.1643491E+01  0.3631133E+00  0.1627917E+01
0.2000000E+01  0.5000000E+00  0.1960532E+01
0.1494727E+01  0.3621796E+00  0.1490105E+01
0.1701807E+01  0.3477237E+00  0.1680818E+01
0.1572156E+01  0.3701847E+00  0.1562333E+01
0.1688392E+01  0.3285111E+00  0.1669081E+01
0.1695932E+01  0.3904821E+00  0.1675320E+01
0.1636337E+01  0.3418163E+00  0.1621764E+01
0.1505941E+01  0.9448485E-01  0.1485209E+01
0.1423727E+01  0.1910920E+00  0.1420616E+01
0.1481447E+01  0.3359634E+00  0.1477879E+01
0.1441613E+01  0.3726133E+00  0.1440220E+01
0.1466699E+01  0.3599060E+00  0.1463874E+01
0.1476682E+01  0.4107296E+00  0.1473335E+01
0.1434448E+01  0.3273535E+00  0.1433499E+01
0.1464523E+01  0.3867258E+00  0.1461983E+01
0.1456903E+01  0.3373583E+00  0.1454791E+01
0.1454188E+01  0.3132491E+00  0.1451982E+01
0.1424069E+01  0.2919612E+00  0.1423164E+01
0.1490969E+01  0.3884111E+00  0.1486751E+01
0.1428051E+01  0.4202828E+00  0.1427681E+01
0.1513790E+01  0.3782958E+00  0.1507926E+01
0.1547789E+01  0.4092466E+00  0.1539619E+01
0.1535154E+01  0.3889763E+00  0.1527793E+01
0.1512699E+01  0.4170463E+00  0.1507203E+01
0.1441554E+01  0.3983607E+00  0.1440375E+01
0.1395941E+01  0.3853832E+00  0.1397283E+01
0.1420578E+01  0.3854393E+00  0.1420495E+01
0.1408336E+01  0.3518173E+00  0.1408790E+01
0.1549967E+01  0.3074339E+00  0.1542139E+01
0.1651639E+01  0.4114272E+00  0.1634935E+01
0.1668616E+01  0.3788978E+00  0.1650743E+01
0.1674624E+01  0.4027285E+00  0.1656185E+01
0.1706988E+01  0.4343785E+00  0.1685095E+01
0.1673984E+01  0.4357547E+00  0.1655006E+01
0.1695270E+01  0.4139894E+00  0.1674816E+01
0.1737273E+01  0.4034108E+00  0.1712499E+01
0.1645630E+01  0.3875965E+00  0.1629765E+01
0.1625874E+01  0.4052508E+00  0.1611402E+01
0.1627808E+01  0.4540126E+00  0.1613552E+01
0.1587158E+01  0.4136289E+00  0.1576005E+01
0.1633718E+01  0.4293591E+00  0.1618924E+01
0.1651607E+01  0.4466828E+00  0.1634933E+01
0.1605650E+01  0.4356658E+00  0.1593049E+01
0.1682168E+01  0.4808869E+00  0.1661588E+01
0.1671711E+01  0.4594749E+00  0.1652938E+01
0.1698428E+01  0.4596870E+00  0.1677260E+01
0.1646221E+01  0.4851828E+00  0.1629407E+01
0.1607747E+01  0.4151289E+00  0.1594880E+01
0.1584205E+01  0.4841185E+00  0.1572746E+01
0.1747573E+01  0.4622079E+00  0.1721640E+01
0.1568396E+01  0.4481495E+00  0.1558466E+01
0.1601760E+01  0.4629165E+00  0.1589545E+01
0.1723356E+01  0.4540167E+00  0.1699792E+01
0.1732897E+01  0.4294241E+00  0.1708216E+01
0.1722218E+01  0.4972746E+00  0.1697980E+01
0.1715121E+01  0.4754441E+00  0.1691836E+01
0.1584567E+01  0.4345797E+00  0.1573670E+01
0.1563465E+01  0.4258523E+00  0.1554342E+01
0.1534166E+01  0.4440258E+00  0.1526906E+01
0.1615090E+01  0.4918227E+00  0.1601146E+01
0.1717469E+01  0.4134541E+00  0.1694733E+01
0.1718488E+01  0.3909170E+00  0.1695466E+01
0.1741353E+01  0.3769080E+00  0.1716378E+01
0.1781199E+01  0.4241746E+00  0.1752419E+01
0.2000000E+01  0.2500000E+00  0.1960360E+01
0.1756308E+01  0.4199875E+00  0.1729818E+01
0.1762447E+01  0.3937207E+00  0.1735518E+01
0.1765097E+01  0.4438197E+00  0.1737563E+01
0.1807974E+01  0.4625425E+00  0.1776113E+01
0.1789176E+01  0.4471344E+00  0.1759226E+01
0.1514158E+01  0.1287364E+00  0.1501222E+01
0.1777674E+01  0.4803377E+00  0.1749008E+01
0.1811145E+01  0.4395021E+00  0.1779732E+01
0.1850404E+01  0.4566449E+00  0.1815933E+01
0.1748483E+01  0.3522599E+00  0.1723054E+01
0.1731235E+01  0.3304535E+00  0.1707625E+01
0.1777870E+01  0.3654441E+00  0.1750003E+01
0.1748149E+01  0.2821176E+00  0.1722809E+01
0.1732875E+01  0.3039003E+00  0.1709073E+01
0.1708314E+01  0.2807181E+00  0.1687096E+01
0.1767650E+01  0.3193756E+00  0.1740791E+01
0.1372661E+01  0.1704076E+00  0.1370240E+01
0.1411157E+01  0.2494459E+00  0.1410689E+01
0.1448000E+01  0.2246098E+00  0.1445233E+01
0.1360382E+01  0.2278583E+00  0.1361591E+01
0.1433680E+01  0.2431125E+00  0.1432092E+01
0.1388814E+01  0.2314916E+00  0.1388882E+01
0.1314549E+01  0.2124991E+00  0.1317327E+01
0.1404157E+01  0.2007613E+00  0.1402731E+01
0.1415035E+01  0.1072182E+00  0.1403922E+01
0.1520299E+01  0.1091515E+00  0.1503298E+01
0.1459010E+01  0.1690672E+00  0.1453179E+01
0.1436337E+01  0.2690050E+00  0.1434785E+01
0.1443480E+01  0.1263360E+00  0.1434408E+01
0.1625000E+01  0.0000000E+00  0.1593607E+01
0.1414954E+01  0.2197329E+00  0.1413512E+01
0.1335299E+01  0.2266424E+00  0.1337486E+01
0.1396801E+01  0.1612344E+00  0.1392551E+01
0.1792033E+01  0.3934232E+00  0.1762740E+01
0.1541310E+01  0.1264947E+00  0.1526841E+01
0.1483859E+01  0.1256971E+00  0.1471550E+01
0.1500341E+01  0.1139400E+00  0.1485427E+01
0.1498380E+01  0.1421255E+00  0.1487530E+01
0.1478242E+01  0.1468909E+00  0.1469517E+01
0.1453147E+01  0.1972183E+00  0.1449168E+01
0.1348833E+01  0.2067866E+00  0.1349951E+01
0.1368157E+01  0.2800764E+00  0.1369961E+01
0.1250000E+01  0.0000000E+00  0.1233364E+01
0.1496272E+01  0.2780308E-01  0.1470209E+01
0.1430228E+01  0.1622338E+00  0.1424565E+01
0.1544491E+01  0.1012427E+00  0.1524477E+01
0.1505524E+01  0.5428530E-01  0.1481065E+01
0.1576405E+01  0.1180891E+00  0.1558238E+01
0.1526885E+01  0.8834234E-01  0.1504107E+01
0.1558557E+01  0.6358195E-01  0.1532712E+01
0.1372206E+01  0.9428859E-01  0.1359333E+01
0.1414069E+01  0.8636887E-01  0.1398714E+01
0.1351230E+01  0.1581055E+00  0.1348860E+01
0.1371634E+01  0.2528708E+00  0.1372994E+01
0.1392978E+01  0.2694234E+00  0.1393540E+01
0.1321668E+01  0.2603105E+00  0.1325328E+01
0.1392566E+01  0.3027057E+00  0.1393476E+01
0.1345601E+01  0.2495441E+00  0.1347993E+01
0.1349996E+01  0.1827855E+00  0.1349678E+01
0.1475238E+01  0.9618066E-01  0.1457419E+01
0.1487372E+01  0.4556180E+00  0.1483610E+01
0.1432024E+01  0.3509343E+00  0.1431085E+01
0.1619231E+01  0.5383449E+00  0.1603953E+01
0.1532505E+01  0.4233173E+00  0.1525528E+01
0.1547332E+01  0.4788657E+00  0.1539055E+01
0.1627786E+01  0.4750493E+00  0.1612860E+01
0.1750658E+01  0.4911384E+00  0.1724260E+01
0.1783313E+01  0.5336292E+00  0.1753340E+01
0.1744147E+01  0.5299352E+00  0.1717400E+01
0.1772978E+01  0.5077787E+00  0.1744094E+01
0.1739682E+01  0.5092411E+00  0.1713579E+01
0.1715917E+01  0.5251974E+00  0.1691780E+01
0.1809547E+01  0.4999146E+00  0.1777364E+01
0.1486188E+01  0.5335558E+00  0.1482200E+01
0.1695320E+01  0.5058771E+00  0.1673523E+01
0.1793562E+01  0.5145404E+00  0.1762643E+01
0.1827482E+01  0.5355643E+00  0.1794153E+01
0.1805457E+01  0.5332234E+00  0.1773660E+01
0.1812320E+01  0.5734372E+00  0.1780286E+01
0.1794794E+01  0.5557356E+00  0.1764047E+01
0.1637325E+01  0.5533192E+00  0.1620320E+01
0.1761146E+01  0.5591762E+00  0.1733037E+01
0.1789115E+01  0.5788851E+00  0.1758648E+01
0.1693317E+01  0.6123782E+00  0.1672208E+01
0.1522396E+01  0.5359490E+00  0.1515728E+01
0.1814654E+01  0.6254783E+00  0.1782494E+01
0.1726166E+01  0.5505978E+00  0.1700779E+01
0.1691322E+01  0.5307786E+00  0.1669748E+01
0.1516987E+01  0.5143680E+00  0.1511038E+01
0.1661909E+01  0.5147686E+00  0.1642721E+01
0.1761865E+01  0.6508066E+00  0.1734199E+01
0.1692174E+01  0.5698207E+00  0.1670584E+01
0.1780214E+01  0.6037461E+00  0.1750775E+01
[...]
POINT_DATA    3280
SCALARS hauteur float
LOOKUP_TABLE DEFAULT
       2.3512331E-02
       1.4074154E-04
       2.9364138E-04
       2.3702335E-02
       1.2520604E-02
       1.1947935E-02
       2.5502716E-02
       2.9432779E-03
       1.1455272E-02
       2.4795358E-02
       2.4449519E-02
       2.0592938E-02
       2.1185406E-02
       2.1727145E-02
       2.2545027E-02
       3.1192729E-04
       2.1802888E-02
       2.3893178E-02
       1.3214897E-02
       1.9418240E-02
       2.3165515E-02
       2.2716266E-02
       2.5175201E-02
       2.3182149E-02
       2.3804349E-02
       2.4269013E-02
       2.3580701E-02
       1.9716832E-02
       2.6508777E-02
       2.3199948E-02
       2.5496481E-02
       2.3762714E-02
       2.4896347E-02
       2.6373526E-02
       1.8414540E-02
       2.2025353E-02
       2.1785406E-02
       1.9478494E-02
       1.8021780E-02
       2.3202614E-02
       2.0710918E-02
       1.8014013E-02
       1.6791529E-02
       1.8959099E-02
       1.4699367E-02
       1.7242521E-02
       2.3926056E-02
       1.5810078E-02
       1.8068294E-02
       2.0995005E-02
       1.9292324E-02
       2.0301251E-02
       1.6380353E-02
       2.5590786E-02
       2.4319759E-02
       2.5778702E-02
       2.1244494E-02
       1.6248344E-02
       2.2071182E-02
       1.4838430E-02
       1.8665539E-02
       1.7688006E-02
       2.0861606E-02
       1.2607664E-02
       1.9509517E-02
       1.9569901E-02
       1.7187003E-02
       3.9895139E-04
       2.5172560E-02
       1.2933566E-02
       2.1515974E-02
       1.4344501E-02
       1.3193121E-02
       1.8044423E-02
       9.2867856E-03
       2.5268304E-02
       2.5962250E-02
       2.7343342E-02
       2.6411819E-02
       2.6087853E-02
       2.7644798E-02
       2.6652905E-02
       2.6928738E-02
       2.6780299E-02
       2.7481884E-02
       2.5501967E-02
       2.8096500E-02
       2.4311570E-02
       2.2682894E-02
       2.3239666E-02
       2.4657115E-02
       2.7555530E-02
       2.9168597E-02
       2.8233770E-02
       2.8526958E-02
       2.3068528E-02
       1.6219004E-02
       1.5388494E-02
       1.4941435E-02
       1.2133071E-02
       1.4390448E-02
       1.3338953E-02
       9.8560413E-03
       1.6937917E-02
       1.7936932E-02
       1.8191771E-02
       2.0484765E-02
       1.7772471E-02
       1.6247645E-02
       1.9404705E-02
       1.2951064E-02
       1.4549655E-02
       1.2687593E-02
       1.6000277E-02
       1.9180176E-02
       2.0119523E-02
       8.9025475E-03
       2.1333379E-02
       1.9712712E-02
       1.0789097E-02
       9.8617896E-03
       1.0091302E-02
       1.0903332E-02
       2.0688113E-02
       2.2042235E-02
       2.3321459E-02
       1.8250059E-02
       1.1499622E-02
       1.1232497E-02
       9.7363124E-03
       6.7249318E-03
       2.2674890E-04
       8.5195015E-03
       8.2028588E-03
       7.6507137E-03
       4.1785525E-03
       5.7142392E-03
       1.7246126E-02
       6.7698867E-03
       4.6889632E-03
       2.4141945E-03
       9.4244519E-03
       1.0899764E-02
       7.5717563E-03
       9.5067585E-03
       1.0739808E-02
       1.2834894E-02
       8.3767901E-03
       2.4940687E-02
       2.7661533E-02
       2.6096655E-02
       2.8325822E-02
       2.6989689E-02
       2.7752460E-02
       2.8981997E-02
       2.6563142E-02
       1.7093391E-02
       1.3303675E-02
       2.3252470E-02
       2.7079854E-02
       1.9701305E-02
       9.9842836E-04
       2.6762728E-02
       2.8803809E-02
       2.3592262E-02
       6.4286527E-03
       1.6255010E-02
       1.7268915E-02
       1.4993295E-02
       1.9017856E-02
       2.0741475E-02
       2.4986740E-02
       2.8005015E-02
       2.9075810E-02
       8.2803040E-03
       3.7628922E-03
       2.2845674E-02
       1.0772967E-02
       5.5517600E-03
       1.3255874E-02
       7.6578003E-03
       5.2231560E-03
       1.4479879E-02
       1.2832383E-02
       2.4564695E-02
       2.8701091E-02
       2.8328599E-02
       3.0005540E-02
       2.8667992E-02
       2.9214201E-02
       2.6592259E-02
       1.1588312E-02
       2.5886117E-02
       2.7606398E-02
       1.6998700E-02
       2.3571216E-02
       2.2566141E-02
       1.7521693E-02
       8.4984471E-03
       5.5750734E-03
       8.0201561E-03
       6.4579718E-03
       8.5751507E-03
       1.0067151E-02
       3.8877986E-03
       2.5636598E-02
       1.1995802E-02
       4.8328200E-03
       3.0987448E-03
       4.1911303E-03
       4.0919372E-03
       5.0295493E-03
       1.5632265E-02
       6.9968162E-03
       5.1964309E-03
       1.2645453E-02
       2.3678001E-02
       4.0128987E-03
       9.0204413E-03
       1.2140689E-02
       2.4289978E-02
       1.3939549E-02
       7.4534009E-03
       1.2140622E-02
       6.0468917E-03
       2.1225184E-02
       1.3507834E-02
       7.8622381E-03
       1.9847495E-02
       1.4777578E-02
       9.0205638E-03
       8.5450595E-03
       1.1524076E-02
       1.1834069E-02
       3.6578354E-03
       5.6288534E-03
       4.7888200E-04
       9.4084716E-03
       2.3253741E-03
       6.2980725E-03
       7.2148859E-03
       1.4181603E-02
       1.1245606E-02
       5.2629311E-03
       3.4307269E-03
       3.5051890E-03
       4.6811249E-03
       5.6792815E-03
       5.8244187E-03
       7.6902390E-03
       1.9606150E-02
       2.7090375E-02
       1.5044168E-02
       1.7248987E-02
       1.9718948E-02
       2.1964975E-02
       4.9832593E-03
       7.8114711E-03
       4.7339198E-03
       2.0123897E-03
       1.7387793E-03
       2.7496699E-03
       9.1846882E-03
       8.7941244E-03
       1.9885519E-03
       1.3088619E-02
       3.8970606E-03
       1.1922816E-02
       2.8193360E-03
       6.4739769E-04
       7.9192214E-03
       1.6324463E-02
       1.5097463E-02
       1.7371095E-02
       7.6284107E-03
       1.7047675E-02
       2.2244357E-02
       2.1038131E-02
       2.6192514E-02
       2.4656765E-02
       2.1720284E-02
       2.5431168E-02
       1.1809570E-02
       5.5860645E-03
       2.1491422E-02
       8.3273313E-03
       2.0518199E-02
       5.6503963E-03
       2.8056084E-02
       2.8202655E-02
       2.9046456E-02
       2.9491955E-02
       2.9965087E-02
       2.5602233E-02
       2.4528796E-02
       2.6919207E-02
       2.3778436E-02
       2.3951795E-02
       1.9056674E-02
       2.2559714E-02
       1.5217812E-02
       2.2472851E-02
       2.1284773E-02
       4.9195541E-03
       3.3326044E-03
       2.7272499E-03
       6.7535877E-03
       1.4256857E-02
       3.0797543E-03
       4.4709635E-03
       1.6104661E-02
       1.9247850E-02
       4.7253239E-03
       1.1981489E-02
       4.9379907E-03
       1.0300158E-02
       8.0862835E-03
       9.9183310E-03
       9.6375833E-03
       4.7117562E-03
       2.6053272E-03
       9.8760238E-05
       6.4005172E-03
       1.4844105E-03
       9.1668752E-03
       5.6557767E-03
       1.5448212E-02
       4.1164420E-04
       3.2022293E-03
       8.1129631E-03
       7.3144204E-03
       1.3482781E-02
       1.0390670E-02
       2.8892916E-03
       1.7938375E-02
       1.3575544E-03
       1.1544578E-02
       2.1384857E-02
       1.2165092E-03
       6.5730386E-04
       1.3367842E-02
       1.3579153E-02
       1.4052090E-02
       1.3865861E-02
       7.1801450E-03
       1.6058161E-02
       1.5177394E-02
       1.5305273E-02
       1.7394806E-02
       1.4525827E-02
       9.4793039E-03
       1.3106712E-02
       1.2767255E-02
       4.4177729E-04
       3.2388564E-03
       3.3589624E-03
       4.9136912E-03
       2.7811772E-03
       2.8511396E-03
       1.2609118E-03
       1.2274608E-03
       8.1499044E-04
       1.4561898E-02
       1.6849733E-02
       1.5667028E-02
       1.2522373E-02
       1.6978846E-02
       1.0495383E-02
       4.2536806E-03
       8.6207634E-03
       4.8956192E-03
       3.5942678E-03
       2.4056373E-03
       3.6882974E-03
       4.5459411E-03
       2.7634710E-02
       3.0894806E-02
       2.9278573E-02
       2.9963574E-02
       3.0890270E-02
       2.9620110E-02
       3.0505002E-02
       3.1557755E-02
       3.1198150E-02
       3.2304874E-02
       3.0776698E-02
       3.1823184E-02
       3.2928427E-02
       3.2304324E-02
       3.2064415E-02
       3.2136168E-02
       3.1256502E-02
       2.9950094E-02
       2.9447976E-02
       2.9400892E-02
       2.9312400E-02
       3.0282105E-02
       3.0910583E-02
       3.1011937E-02
       2.7705181E-02
       2.4823765E-02
       2.7908921E-02
       2.6476031E-02
       2.5042476E-02
       2.9774863E-02
       3.1000032E-02
       3.0663527E-02
       3.0223038E-02
       3.0130088E-02
       3.0804250E-02
       3.2251304E-02
       3.1621843E-02
       2.9861101E-02
       3.1486940E-02
       3.2141297E-02
       3.2328086E-02
       3.1619625E-02
       3.0375842E-02
       3.0782137E-02
       3.3711359E-02
       3.1559204E-02
       3.3486797E-02
       3.2963673E-02
       3.2910993E-02
       3.2980193E-02
       3.4059853E-02
       3.3466780E-02
       3.3334294E-02
       3.2891927E-02
       3.3414201E-02
       3.4560268E-02
       3.3935816E-02
       3.4297696E-02
       3.3480289E-02
       3.5388725E-02
       3.2975054E-02
       3.4661693E-02
       3.1945912E-02
       3.4048063E-02
       3.4929873E-02
       3.5732626E-02
       3.5525702E-02
       3.6584331E-02
       3.6033808E-02
       3.5381728E-02
       3.4389960E-02
       3.2710640E-02
       3.3468814E-02
       3.6093749E-02
       3.6318188E-02
       3.6420669E-02
       3.7329284E-02
       3.6947062E-02
       3.5154311E-02
       3.6797021E-02
       3.2067132E-02
       3.3341858E-02
       3.6803923E-02
       3.6792532E-02
       3.6031892E-02
       3.6670891E-02
       3.7111743E-02
       3.1084265E-02
       3.3277480E-02
       3.7799562E-02
       3.2605025E-02
       3.4511097E-02
       3.7378531E-02
       3.7637858E-02
       3.1183879E-02
       3.4014561E-02
       3.4636747E-02
       3.7212808E-02
       3.7632143E-02
       3.7577202E-02
       3.8521842E-02
       3.8156018E-02
       3.1862960E-02
       3.1088497E-02
       3.2232561E-02
       2.9264331E-02
       3.2329616E-02
       3.0231492E-02
       3.0310685E-02
       3.0066741E-02
       3.8276212E-02
       3.9232512E-02
       2.9037391E-02
       3.8006561E-02
       3.8620222E-02
       3.7909795E-02
       3.8799868E-02
       2.8051811E-02
       2.9533119E-02
       2.8717420E-02
       2.7360815E-02
       2.8259476E-02
       2.8453505E-02
       3.8383879E-02
       3.7887151E-02
       3.8841731E-02
       3.7926258E-02
       2.7282152E-02
       2.6395650E-02
       3.7576619E-02
       3.9307503E-02
       3.8524727E-02
       3.6729855E-02
       2.6670721E-02
       3.9028072E-02
       3.7304005E-02
       3.6628989E-02
       2.7791846E-02
       3.8463538E-02
       3.9130171E-02
       3.7657820E-02
       4.0101732E-02
       3.7772242E-02
       3.9723061E-02
       3.9658452E-02
       3.9694056E-02
       4.0007880E-02
       3.9691564E-02
       3.9258497E-02
       3.9171386E-02
       4.0515483E-02
       4.0104162E-02
       4.0665848E-02
       4.0186181E-02
       4.0432443E-02
       2.7086175E-02
       3.6674874E-03
       2.3843590E-03
       1.0611021E-03
       1.7527639E-03
       1.1110270E-03
       1.5985446E-03
       1.4550581E-03
       2.0314721E-03
       2.2763981E-03
       1.9663647E-03
       2.6363294E-03
       2.2753821E-04
       3.5092034E-04
       1.2515915E-03
       1.4010627E-03
       9.0653752E-04
       5.6714594E-04
       1.4728952E-03
       3.9207487E-04
       4.3281573E-04
       9.6877519E-04
       6.4590080E-04
       3.8137096E-04
       5.8323845E-04
       2.2886104E-04
       2.5424676E-02
       1.4389384E-02
       1.3241532E-02
       1.6344993E-02
       1.4819997E-02
       1.5322574E-02
       1.7235777E-02
       2.2960901E-02
       2.0249970E-02
       2.2264523E-02
       2.3569071E-02
       2.0832054E-02
       2.1941857E-02
       1.9307985E-02
       2.2445716E-02
       2.3957789E-02
       2.3318662E-02
       2.5037780E-02
       2.6093745E-02
       2.5166428E-02
       2.3485275E-02
       2.1012646E-02
       2.2249037E-02
       2.1608561E-02
       2.2270442E-02
       2.3809413E-02
       2.2742291E-02
       2.1674440E-02
       2.2744688E-02
       2.1979401E-02
       2.2871636E-02
       1.9757166E-02
       2.2718882E-02
       2.0600844E-02
       2.4223238E-02
       2.1694059E-02
       2.3741095E-02
       2.4937644E-02
       2.1380422E-02
       2.1673465E-02
       2.2957251E-02
       2.4905680E-02
       2.6158409E-02
       2.5314816E-02
       2.4318051E-02
       2.6950404E-02
       2.4974101E-02
       2.5684342E-02
       2.5057204E-02
       2.3978417E-02
       2.6039973E-02
       2.5876551E-02
       2.7596384E-02
       2.5892268E-02
       2.6798067E-02
       2.8708981E-02
       2.7807109E-02
       2.9209428E-02
       6.4901948E-03
       8.3959316E-03
       1.0095036E-02
       1.1045903E-02
       1.0799918E-02
       1.0618477E-02
       3.4447787E-03
       9.0354690E-04
       3.9392793E-03
       1.7112126E-03
       1.1922836E-02
       1.7556541E-02
       1.1150262E-02
       9.6830050E-03
       1.4868083E-02
       1.5461974E-02
       1.3204151E-02
       1.0567149E-02
       1.1029617E-02
       1.2479381E-02
       1.3006140E-02
       1.5149526E-02
       8.9554709E-03
       7.0530750E-03
       9.1340432E-03
       8.9266609E-03
       6.7700101E-03
       7.6990656E-03
       9.0402798E-03
       4.2272224E-03
       4.0749134E-03
       5.9536098E-03
       4.1615930E-03
       5.3094034E-03
       5.4143415E-03
       1.0233291E-02
       4.2088552E-03
       5.9635011E-03
       3.3530615E-03
       1.5924012E-03
       1.6102044E-03
       9.7440161E-04
       1.8226460E-02
       1.9024380E-02
       1.8764208E-02
       5.0500564E-03
       5.9704318E-03
       6.8164042E-03
       4.2379770E-03
       4.3808889E-03
       2.8258987E-03
       2.7941425E-02
       2.7156158E-02
       2.8990464E-02
       2.7146600E-02
       2.9163670E-02
       2.5398812E-02
       3.0373971E-02
       2.4928685E-02
       3.1490486E-02
       3.0164601E-02
       2.7102057E-02
       2.8414155E-02
       1.7138122E-02
       3.1041442E-02
       2.1966682E-02
       2.2289922E-02
       1.0828327E-02
       2.0923992E-02
       3.2175287E-02
       1.4416628E-02
       1.0714788E-02
       1.4516391E-02
       1.4096269E-02
       3.0670332E-02
       3.2138210E-02
       2.4200636E-02
       2.2748800E-02
       3.1385238E-02
       3.3710744E-02
       3.3926613E-02
       3.1325275E-02
       3.3887795E-02
       3.5833942E-02
       3.5234640E-02
       3.8228360E-02
       3.7043872E-02
       3.8937183E-02
       3.8391057E-02
       3.8943683E-02
       3.8304149E-02
       3.8965974E-02
       4.0025432E-02
       3.9495761E-02
       3.9528782E-02
       3.9596648E-02
       3.6731340E-02
       3.7382654E-02
       3.5838426E-02
       3.7130969E-02
       3.9557550E-02
       3.9731993E-02
       3.9021386E-02
       3.8798474E-02
       3.9133790E-02
       4.0343914E-02
       4.1401358E-02
       2.1233980E-03
       4.4244115E-04
       7.8385720E-04
       3.3030368E-04
       1.7219358E-02
       1.8442053E-02
       1.6313470E-02
       1.8018004E-02
       1.7860678E-02
       2.5050035E-02
       2.7736766E-02
       2.7188174E-02
       1.9428833E-02
       1.8130925E-02
       1.8705552E-02
       2.4521311E-02
       2.3664580E-02
       2.1397267E-02
       2.7401510E-02
       3.0302146E-02
       1.4165183E-03
       7.3789007E-04
       2.2332856E-03
       1.0502462E-03
       1.3808584E-03
       3.8259361E-03
       3.4318450E-04
       1.2639097E-03
       1.3308606E-04
       2.6273982E-04
       3.9050185E-04
       5.8665557E-04
       2.1906650E-04
       5.9258885E-04
       1.5901639E-04
       5.8713748E-03
       7.5308050E-03
       1.8386231E-03
       2.5637098E-03
       1.5506463E-02
       1.6547342E-02
       1.8533042E-02
       1.8826966E-02
       1.9256120E-02
       2.0490904E-02
       2.0852934E-02
       9.4071471E-03
       8.8257298E-03
       1.2804177E-02
       1.3888278E-02
       4.3479545E-03
       1.0850620E-02
       1.2070305E-02
       2.5417307E-03
       1.1131121E-02
       1.3817423E-02
       1.5510746E-02
       1.5486759E-02
       1.6692535E-02
       1.5147259E-02
       6.8193815E-04
       1.7100863E-02
       1.3172223E-02
       1.6693403E-02
       1.2076660E-02
       1.2372115E-02
       1.1670589E-02
       5.1343804E-03
       8.5447190E-03
       6.4858360E-03
       7.7272623E-03
       6.2078639E-03
       2.7159122E-03
       1.1387672E-03
       1.6214761E-02
       1.5301858E-02
       1.7688596E-02
       6.9713689E-03
       7.1796573E-03
       6.0628034E-03
       9.1342482E-03
       7.8820781E-03
       6.9867463E-03
       1.1272300E-02
       3.3449443E-03
       9.7110563E-04
       6.9757638E-04
       2.2273953E-02
       1.7537203E-02
       1.1560945E-02
       1.3840807E-02
       1.1177313E-02
       1.6110773E-02
       1.8661058E-02
       1.7669130E-02
       3.2996126E-02
       3.5121812E-02
       3.5235907E-02
       3.5428809E-02
       3.5430992E-02
       3.5925012E-02
       3.4634001E-02
       3.4418173E-02
       3.5120962E-02
       3.4392660E-02
       3.8245250E-02
       3.8177156E-02
       4.3082748E-02
       3.7978093E-02
       3.6513529E-02
       4.0685057E-02
       3.9951798E-02
       4.0744185E-02
       3.9966695E-02
       3.8644296E-02
       4.1775908E-02
       3.3787199E-02
       4.1399235E-02
       4.2483982E-02
       3.6742499E-02
       3.2809357E-02
       4.2495115E-02
       4.2157683E-02
       4.0354545E-02
       4.0655965E-02
       4.0871273E-02
       3.4015715E-02
       4.1717464E-02
       3.6901652E-02
       4.1282291E-02
       3.5606207E-02
       4.2132783E-02
       4.1103793E-02
       4.1712471E-02
       4.1387509E-02
       4.1873773E-02
       4.0471194E-02
       4.2422998E-02
       3.8577522E-02
       4.2141374E-02
       3.8148963E-02
       3.7358668E-02
       4.1925662E-02
       4.2452459E-02
       3.8776715E-02
       3.7309574E-02
       1.8468718E-02
       4.2868049E-02
       1.6184275E-02
       4.3241028E-02
       3.9039076E-02
       4.3032332E-02
       3.5412610E-02
       3.4302903E-02
       4.3099010E-02
       4.3481539E-02
       4.3467151E-02
       4.4025161E-02
       4.2818305E-02
       4.2713125E-02
       3.8165476E-02
       3.6315072E-02
       3.7790153E-02
       3.5820949E-02
       3.5211227E-02
       4.1144849E-02
       3.6679641E-02
       3.7766683E-02
       3.4810493E-02
       3.5435770E-02
       3.6883618E-02
       4.4620826E-02
       3.9294580E-02
       4.1942793E-02
       3.6385301E-02
       4.1681901E-02
       3.6862049E-02
       3.6241780E-02
       3.5212586E-02
       3.4357936E-02
       3.5724571E-02
       3.6204523E-02
       3.6357954E-02
       3.5979303E-02
       3.5474281E-02
       3.5910222E-02
       3.4973620E-02
       3.5842902E-02
       3.4246487E-02
       3.3929474E-02
       3.4589097E-02
       3.3879751E-02
       3.4597062E-02
       3.5241369E-02
       3.4760188E-02
       3.3990584E-02
       3.3257091E-02
       3.3063948E-02
       3.2925989E-02
       3.1864680E-02
       3.3574539E-02
       3.3908328E-02
       3.7381618E-02
       3.9511805E-02
       3.8605887E-02
       3.8912680E-02
       4.0092694E-02
       4.1055144E-02
       4.0796024E-02
       4.1051867E-02
       4.0819671E-02
       4.0367829E-02
       4.1189525E-02
       4.0687062E-02
       4.1730063E-02
       4.0691327E-02
       4.1631105E-02
       4.1314436E-02
       4.2040579E-02
       4.1028181E-02
       4.1078951E-02
       4.1049258E-02
       4.0158980E-02
       4.1465251E-02
       4.0656615E-02
       4.0387656E-02
       4.1285727E-02
       4.1352798E-02